37
Conformer  5, Energy = 17.5790 kcal/mol
S     -1.456320   -0.769711    0.489974
C     -2.611904    0.214030   -0.315798
C     -2.006306    0.935273   -1.330636
C     -0.609885    0.671939   -1.445332
C     -0.174284   -0.240120   -0.508634
C      1.215643   -0.770684   -0.306329
C      2.039911    0.152395    0.596108
C      3.426205   -0.405182    0.931732
C      4.347576   -0.518130   -0.284683
C      5.749716   -0.971800    0.124135
C      6.670387   -1.091122   -1.079957
H     -2.539381    1.621024   -1.977659
H      0.040169    1.131610   -2.179837
H      1.180730   -1.780165    0.121730
H      1.695684   -0.865255   -1.287579
H      2.144660    1.139061    0.126784
H      1.502460    0.316051    1.539225
H      3.321756   -1.386430    1.410466
H      3.890779    0.258821    1.671491
H      4.408906    0.452478   -0.791293
H      3.935404   -1.234984   -1.003656
H      6.179719   -0.257671    0.835967
H      5.693701   -1.941883    0.631693
H      7.666575   -1.416275   -0.764433
H      6.285859   -1.822909   -1.797505
H      6.773145   -0.128774   -1.591478
C     -4.010036    0.262964    0.061501
C     -4.901669    1.287439   -0.208570
S     -4.798175   -1.006149    0.911277
C     -6.298650   -0.189712    0.920362
C     -6.214616    1.029090    0.284937
C     -7.483080   -0.820920    1.566696
H     -4.629216    2.195176   -0.732704
H     -7.051615    1.708632    0.177809
H     -7.286864   -1.025291    2.624462
H     -7.740321   -1.762409    1.070099
H     -8.356659   -0.162831    1.509637
