37
Conformer  2, Energy = 16.5229 kcal/mol
S     -1.041371    0.960819   -1.191720
C     -2.027707    0.795513    0.208464
C     -1.347247    1.246375    1.327146
C     -0.032733    1.713593    1.032452
C      0.271705    1.604085   -0.307110
C      1.545984    1.984869   -1.003856
C      2.719392    1.063871   -0.649163
C      2.556882   -0.355083   -1.205438
C      3.800003   -1.228440   -1.008129
C      4.094993   -1.538855    0.459830
C      5.263348   -2.502916    0.598470
H     -1.766140    1.248168    2.326042
H      0.654790    2.105254    1.772623
H      1.804040    3.009160   -0.704699
H      1.411423    2.010711   -2.092280
H      2.846741    1.030331    0.438945
H      3.635468    1.503854   -1.062495
H      1.695145   -0.848432   -0.741233
H      2.348408   -0.295991   -2.280980
H      3.644275   -2.170502   -1.548623
H      4.669401   -0.742162   -1.467006
H      4.334224   -0.618938    1.003579
H      3.209386   -1.977610    0.933695
H      5.461358   -2.708507    1.655179
H      5.048225   -3.454745    0.102368
H      6.172912   -2.082768    0.157471
C     -3.370425    0.250993    0.135317
C     -4.101375   -0.075512   -0.995234
S     -4.288895   -0.084781    1.551802
C     -5.627958   -0.657278    0.660166
C     -5.395278   -0.595569   -0.695373
C     -6.845401   -1.136743    1.372229
H     -3.733617    0.050043   -2.006271
H     -6.114468   -0.907802   -1.443113
H     -6.596283   -1.936669    2.076894
H     -7.317699   -0.318129    1.925116
H     -7.581504   -1.532632    0.664935
