37
Conformer  1, Energy = 16.4414 kcal/mol
S     -1.316348    0.095539   -0.812437
C     -2.536992    0.638127    0.272915
C     -1.989407    1.489816    1.218160
C     -0.587534    1.688889    1.048487
C     -0.087899    0.983108   -0.023806
C      1.326392    0.932265   -0.521883
C      2.129647   -0.166576    0.178699
C      3.575811   -0.202007   -0.321375
C      4.376631   -1.302935    0.377557
C      5.857019   -1.314396   -0.009278
C      6.100709   -1.664353   -1.469130
H     -2.562123    1.959947    2.008240
H      0.020328    2.319087    1.686585
H      1.343303    0.774722   -1.607633
H      1.801645    1.905447   -0.343966
H      2.120062    0.000273    1.263409
H      1.658445   -1.142371    0.005353
H      3.576042   -0.367645   -1.404529
H      4.050591    0.769713   -0.139796
H      3.931614   -2.281012    0.157556
H      4.307921   -1.161893    1.463389
H      6.373159   -2.052615    0.616127
H      6.308514   -0.340477    0.212717
H      5.708722   -0.892558   -2.137844
H      5.631901   -2.618868   -1.728251
H      7.175227   -1.752125   -1.659594
C     -3.918341    0.213180    0.141630
C     -4.466138   -0.638677   -0.803577
S     -5.139542    0.756192    1.226652
C     -6.365769   -0.134032    0.439624
C     -5.868284   -0.838127   -0.633577
C     -7.766251   -0.077258    0.944058
H     -3.893536   -1.108703   -1.593819
H     -6.475490   -1.468970   -1.271658
H     -7.822975   -0.440918    1.975345
H     -8.427675   -0.700262    0.332836
H     -8.149377    0.948050    0.912815
