37
Conformer  3, Energy = 16.5311 kcal/mol
S     -0.883751    1.455475    0.380080
C     -2.092371    0.515017   -0.404130
C     -1.663526    0.144705   -1.667614
C     -0.358042    0.626079   -1.979190
C      0.191017    1.351850   -0.944491
C      1.534357    2.020160   -0.890525
C      2.694690    1.022966   -0.792022
C      2.749773    0.300471    0.558654
C      4.003676   -0.562237    0.732187
C      4.051067   -1.759390   -0.218135
C      5.253756   -2.646050    0.067825
H     -2.254089   -0.451096   -2.352742
H      0.150771    0.442922   -2.917983
H      1.588565    2.736576   -0.061678
H      1.658078    2.608627   -1.809162
H      3.631853    1.574984   -0.936636
H      2.626705    0.294265   -1.607878
H      1.861359   -0.327769    0.689982
H      2.734362    1.045692    1.363590
H      4.026486   -0.926761    1.766775
H      4.899232    0.055800    0.596145
H      3.135244   -2.352711   -0.115792
H      4.105565   -1.420228   -1.257820
H      5.223254   -3.030429    1.092063
H      6.188736   -2.092525   -0.063826
H      5.265681   -3.500989   -0.615177
C     -3.355207    0.206198    0.239619
C     -3.726027    0.440206    1.553382
S     -4.646012   -0.545057   -0.615393
C     -5.672254   -0.546856    0.749418
C     -5.053581    0.008564    1.846569
C     -7.046865   -1.111018    0.645468
H     -3.077428    0.900848    2.288296
H     -5.524839    0.104463    2.817432
H     -7.604107   -0.958997    1.575854
H     -7.607536   -0.628665   -0.161964
H     -7.008592   -2.187518    0.448822
