37
Conformer  8, Energy = 18.3314 kcal/mol
S     -0.707405    0.360426   -1.067959
C     -1.853323    0.981850    0.050931
C     -1.403144    2.176478    0.586576
C     -0.124928    2.564592    0.088613
C      0.379489    1.655892   -0.816908
C      1.685088    1.707495   -1.556069
C      2.898737    1.482549   -0.647103
C      2.987582    0.100393    0.013269
C      3.162806   -1.043040   -0.989542
C      3.227648   -2.422074   -0.327490
C      4.459124   -2.624293    0.541655
H     -1.958989    2.752894    1.315543
H      0.398885    3.464727    0.387229
H      1.776340    2.703135   -2.010294
H      1.697834    1.000586   -2.393202
H      3.809002    1.650295   -1.236516
H      2.903178    2.241541    0.145831
H      3.846139    0.118786    0.694616
H      2.103648   -0.079466    0.635482
H      4.069154   -0.877598   -1.584402
H      2.321745   -1.053223   -1.690950
H      3.230991   -3.184357   -1.115876
H      2.325464   -2.590983    0.271922
H      5.375727   -2.425470   -0.022520
H      4.443312   -1.971753    1.419307
H      4.499596   -3.658063    0.899838
C     -3.110687    0.323745    0.344167
C     -4.242718    0.910469    0.884448
S     -3.378888   -1.352280    0.073534
C     -4.980979   -1.283373    0.662171
C     -5.316902   -0.010066    1.064812
C     -5.816175   -2.516604    0.687496
H     -4.310108    1.961632    1.135782
H     -6.286321    0.254872    1.469544
H     -6.812302   -2.306007    1.090708
H     -5.942697   -2.921203   -0.322113
H     -5.355925   -3.284927    1.317469
