37
Conformer  7, Energy = 17.8301 kcal/mol
S     -1.256846    0.266605   -1.181586
C     -2.219845    0.883994    0.100385
C     -1.533261    1.873099    0.783850
C     -0.227586    2.108436    0.262099
C      0.060745    1.290424   -0.809253
C      1.319249    1.236886   -1.626148
C      2.518861    0.682316   -0.848854
C      2.395484   -0.814065   -0.541030
C      3.581539   -1.370285    0.253535
C      4.894695   -1.369853   -0.529977
C      6.009962   -2.040574    0.257790
H     -1.941171    2.407884    1.632504
H      0.465848    2.839831    0.659602
H      1.556204    2.259072   -1.949050
H      1.173162    0.654032   -2.543956
H      2.657784    1.240821    0.084959
H      3.413829    0.854677   -1.457404
H      2.282425   -1.377131   -1.475340
H      1.489065   -0.992996    0.048710
H      3.702806   -0.799103    1.182029
H      3.341699   -2.400164    0.546466
H      5.200190   -0.344442   -0.762833
H      4.761222   -1.895882   -1.482231
H      6.941147   -2.026851   -0.317252
H      6.187657   -1.521572    1.205113
H      5.762657   -3.083960    0.478069
C     -3.564563    0.418869    0.375766
C     -4.541997    1.094825    1.086734
S     -4.154412   -1.110025   -0.142779
C     -5.688061   -0.860536    0.566809
C     -5.761146    0.362832    1.194699
C     -6.738120   -1.911069    0.453635
H     -4.400016    2.081512    1.509730
H     -6.645141    0.721696    1.708064
H     -6.403558   -2.846346    0.914440
H     -7.658582   -1.599875    0.958721
H     -6.981924   -2.105507   -0.596017
