37
Conformer  4, Energy = 17.5058 kcal/mol
S     -1.094996    0.931828    0.709963
C     -2.336863    0.100860   -0.144296
C     -1.800561   -0.569669   -1.231285
C     -0.390048   -0.400077   -1.354562
C      0.127156    0.396625   -0.356839
C      1.556045    0.805060   -0.144623
C      2.321779   -0.243271    0.667484
C      3.761167    0.170244    0.988621
C      4.665382    0.424037   -0.222037
C      4.789273   -0.737504   -1.210736
C      5.362070   -2.002621   -0.591208
H     -2.387296   -1.163921   -1.921106
H      0.211537   -0.845010   -2.138136
H      2.026114    0.939889   -1.126044
H      1.604981    1.778092    0.359765
H      1.801243   -0.418337    1.618242
H      2.315235   -1.205820    0.142067
H      4.212667   -0.602231    1.622573
H      3.739108    1.082582    1.598126
H      4.308905    1.308190   -0.763664
H      5.666280    0.682780    0.146372
H      5.447325   -0.423002   -2.029897
H      3.817287   -0.959335   -1.664547
H      5.514536   -2.763198   -1.363708
H      6.327930   -1.804694   -0.115818
H      4.686427   -2.423578    0.159080
C     -3.722469    0.151052    0.284094
C     -4.259062    0.821780    1.370991
S     -4.964776   -0.679868   -0.570138
C     -6.185106   -0.146738    0.498556
C     -5.669911    0.651707    1.494578
C     -7.599112   -0.560462    0.278452
H     -3.672502    1.416497    2.060584
H     -6.270613    1.096681    2.278775
H     -7.958312   -0.213823   -0.696143
H     -8.254666   -0.136812    1.046552
H     -7.696158   -1.650361    0.319914
