37
Conformer  6, Energy = 17.5928 kcal/mol
S     -1.119012    0.124744    1.074610
C     -2.385831    0.803264    0.134001
C     -1.918998    1.881270   -0.598272
C     -0.535955    2.147807   -0.377384
C      0.027664    1.262462    0.515947
C      1.445571    1.213860    1.004362
C      2.327321    0.361252    0.086919
C      3.776883    0.340368    0.577507
C      4.725566   -0.415494   -0.356880
C      4.431554   -1.913692   -0.441655
C      5.473497   -2.635899   -1.282478
H     -2.542167    2.468891   -1.261228
H      0.014738    2.950995   -0.851448
H      1.840884    2.237007    1.050387
H      1.483402    0.821869    2.028782
H      1.929542   -0.659567    0.047989
H      2.291589    0.755930   -0.936480
H      3.822829   -0.097755    1.581645
H      4.138478    1.372415    0.666392
H      5.750183   -0.271707    0.008385
H      4.683802    0.027326   -1.359533
H      4.417074   -2.349930    0.563903
H      3.445348   -2.083709   -0.886301
H      5.242078   -3.704102   -1.336333
H      5.496562   -2.240979   -2.303134
H      6.472410   -2.526934   -0.848183
C     -3.733893    0.273835    0.124824
C     -4.666165    0.410484   -0.889385
S     -4.402314   -0.611258    1.436926
C     -5.906098   -0.812729    0.651268
C     -5.911896   -0.215734   -0.589652
C     -7.003444   -1.557976    1.328506
H     -4.466966    0.929901   -1.818320
H     -6.766623   -0.224368   -1.255376
H     -7.864626   -1.676573    0.661948
H     -7.340646   -1.019430    2.220654
H     -6.672338   -2.558269    1.627087
