38
Conformer 31, Energy = -8.5039 kcal/mol
N      0.853210    1.097438   -0.343540
C      1.972429    0.299905   -0.431844
C      1.578155   -0.857440   -1.080486
C      0.198950   -0.748580   -1.381171
C     -0.233516    0.471927   -0.908067
C     -1.582403    1.110530   -0.948905
C     -2.283246    1.118856    0.412774
C     -2.612145   -0.262294    0.993988
C     -3.487242   -1.164576    0.118677
C     -4.856643   -0.562833   -0.197508
C     -5.726947   -1.541822   -0.970789
H      2.213713   -1.701214   -1.317493
H     -0.411706   -1.486275   -1.886134
H     -1.469069    2.147554   -1.290422
H     -2.208550    0.614222   -1.698870
H     -3.207145    1.702969    0.325940
H     -1.659015    1.654010    1.140261
H     -1.679529   -0.793872    1.218517
H     -3.113570   -0.115822    1.959179
H     -3.628380   -2.115045    0.648851
H     -2.965056   -1.409561   -0.812903
H     -4.743668    0.349534   -0.792725
H     -5.366154   -0.286014    0.732588
H     -6.700319   -1.091943   -1.190105
H     -5.257928   -1.817306   -1.920796
H     -5.897993   -2.456046   -0.393506
C      3.258926    0.692836    0.084216
C      3.587533    1.866591    0.736795
S      4.634811   -0.323933   -0.060373
C      5.658157    0.788732    0.738025
C      4.963270    1.922089    1.111822
C      7.049793    0.460436    0.931026
H      2.885374    2.662995    0.946055
H      5.421290    2.755525    1.632127
O      7.658620   -0.545877    0.597166
O      7.707559    1.451483    1.577992
H      0.828927    2.013098    0.081570
H      8.619504    1.099323    1.638070
