38
Conformer 58, Energy = -6.8147 kcal/mol
N      0.754965    1.043296   -1.050838
C      1.884567    0.368919   -0.643605
C      1.609535   -0.979683   -0.789832
C      0.291724   -1.111127   -1.290310
C     -0.223570    0.158853   -1.439260
C     -1.558595    0.617115   -1.925052
C     -2.467221    1.119710   -0.799001
C     -2.840415    0.081929    0.268317
C     -3.639722   -1.100928   -0.284347
C     -4.013453   -2.130298    0.785747
C     -4.995115   -1.604506    1.821546
H      2.284653   -1.794378   -0.560866
H     -0.225328   -2.035877   -1.513048
H     -2.049447   -0.187791   -2.483364
H     -1.409926    1.432727   -2.644546
H     -1.985241    1.968327   -0.296503
H     -3.389286    1.511407   -1.246698
H     -1.937917   -0.281999    0.772628
H     -3.433983    0.598035    1.031695
H     -4.548706   -0.736216   -0.777633
H     -3.049931   -1.619282   -1.048271
H     -4.465846   -2.996892    0.288736
H     -3.108874   -2.490900    1.289145
H     -4.548394   -0.817808    2.436204
H     -5.301176   -2.413597    2.492610
H     -5.894155   -1.203199    1.343349
C      3.071151    1.037637   -0.173917
C      3.281573    2.397590   -0.043281
S      4.463974    0.161395    0.314699
C      5.340694    1.577925    0.696762
C      4.581695    2.706844    0.455388
C      6.694519    1.546891    1.202669
H      2.547168    3.153445   -0.289121
H      4.947819    3.712456    0.630869
O      7.387901    2.510562    1.498909
O      7.193941    0.298712    1.342398
H      0.653706    2.048042   -1.058561
H      8.096715    0.452264    1.686381
