38
Conformer 51, Energy = -7.5121 kcal/mol
N      1.317357   -0.418794    0.412201
C      2.397765   -0.044149   -0.355443
C      2.232763   -0.653297   -1.587397
C      1.032001   -1.402918   -1.553715
C      0.478336   -1.241342   -0.301764
C     -0.776336   -1.795216    0.287233
C     -1.950012   -0.828025    0.113150
C     -3.235886   -1.406403    0.708038
C     -4.418167   -0.434123    0.664119
C     -4.885589   -0.108825   -0.755037
C     -6.129999    0.766018   -0.741714
H      2.904873   -0.570947   -2.432053
H      0.617343   -1.995083   -2.359627
H     -1.010115   -2.752505   -0.194940
H     -0.620657   -2.008459    1.352100
H     -1.718525    0.128779    0.598073
H     -2.090495   -0.617784   -0.953678
H     -3.502161   -2.332977    0.185029
H     -3.055203   -1.676215    1.756036
H     -4.152545    0.491945    1.188439
H     -5.250204   -0.883521    1.220535
H     -4.096807    0.414308   -1.305865
H     -5.104031   -1.035780   -1.297591
H     -5.937153    1.714185   -0.229710
H     -6.446227    0.990537   -1.765215
H     -6.958563    0.262650   -0.233349
C      3.443085    0.820589    0.129756
C      3.549162    1.402890    1.378957
S      4.776260    1.261945   -0.857369
C      5.489615    2.219555    0.365447
C      4.721524    2.204161    1.513746
C      6.732968    2.931973    0.174972
H      2.827539    1.271973    2.174710
H      4.992993    2.747197    2.412364
O      7.307158    3.635229    0.995300
O      7.270683    2.767564   -1.054145
H      1.158594   -0.128362    1.366296
H      8.088659    3.302826   -1.017887
