38
Conformer 24, Energy = -8.7975 kcal/mol
N      1.127159    0.169303   -0.888961
C      2.057023    1.184110   -0.909114
C      1.601522    2.118338   -1.822476
C      0.372359    1.655171   -2.351511
C      0.098320    0.440529   -1.760118
C     -1.049903   -0.495061   -1.944233
C     -2.136801   -0.262560   -0.891855
C     -3.311771   -1.222769   -1.091354
C     -4.483243   -0.959910   -0.140991
C     -4.145886   -1.216670    1.328328
C     -5.372494   -1.056548    2.213334
H      2.096652    3.045028   -2.083144
H     -0.242910    2.155092   -3.089209
H     -1.470180   -0.356484   -2.948082
H     -0.693781   -1.531675   -1.893389
H     -2.493364    0.774139   -0.948321
H     -1.708405   -0.396180    0.108412
H     -2.968113   -2.257906   -0.973377
H     -3.680664   -1.128538   -2.120462
H     -4.834481    0.071350   -0.266921
H     -5.313550   -1.613566   -0.436297
H     -3.374368   -0.519023    1.670459
H     -3.746998   -2.230762    1.447519
H     -6.153389   -1.770924    1.933418
H     -5.784724   -0.045798    2.132375
H     -5.110337   -1.233925    3.261498
C      3.246771    1.169388   -0.099507
C      3.506678    0.378526    1.003094
S      4.575729    2.201434   -0.434772
C      5.495023    1.594685    0.872852
C      4.795666    0.623912    1.563243
C      6.817097    2.119465    1.114537
H      2.809086   -0.342362    1.410172
H      5.191079    0.112083    2.433335
O      7.436303    2.969707    0.490677
O      7.388637    1.540987    2.197088
H      1.198590   -0.666373   -0.326129
H      8.261668    1.983388    2.239881
