38
Conformer 25, Energy = -8.7497 kcal/mol
N      1.081578   -0.036584   -1.057116
C      1.926849    1.047862   -0.979015
C      1.356881    2.044897   -1.751492
C      0.148492    1.546925   -2.295899
C     -0.006621    0.252866   -1.846139
C     -1.088386   -0.744304   -2.101291
C     -2.365070   -0.455820   -1.304914
C     -2.200170   -0.699884    0.199537
C     -3.462467   -0.383069    1.007952
C     -4.629633   -1.325244    0.710826
C     -5.814256   -1.044433    1.623002
H      1.763375    3.035428   -1.911730
H     -0.535621    2.079623   -2.944242
H     -0.733732   -1.759413   -1.884431
H     -1.330122   -0.723387   -3.171525
H     -2.694133    0.576319   -1.477863
H     -3.152752   -1.110948   -1.693910
H     -1.902349   -1.740604    0.375717
H     -1.391261   -0.069578    0.586865
H     -3.766619    0.654525    0.823703
H     -3.210421   -0.452786    2.073591
H     -4.955586   -1.213417   -0.328548
H     -4.312463   -2.365870    0.844279
H     -6.173760   -0.018523    1.494059
H     -5.542443   -1.184339    2.674135
H     -6.639598   -1.725374    1.392577
C      3.146446    1.038613   -0.212030
C      3.654605    0.009650    0.559046
S      4.187273    2.403092   -0.160939
C      5.304100    1.630448    0.877533
C      4.891961    0.348516    1.183939
C      6.485272    2.340921    1.303843
H      3.173925   -0.951970    0.682788
H      5.453178   -0.318069    1.828774
O      6.843875    3.476852    1.028407
O      7.253695    1.580442    2.119067
H      1.233368   -0.920844   -0.593668
H      8.002588    2.177079    2.325110
