38
Conformer 37, Energy = -8.1576 kcal/mol
N      0.875107   -0.006332    1.231106
C      1.920167   -0.223384    0.360854
C      1.540557   -1.277689   -0.451612
C      0.245243   -1.694161   -0.060321
C     -0.152248   -0.886006    0.983444
C     -1.415714   -0.873200    1.778253
C     -2.338047    0.296341    1.420945
C     -2.854443    0.319203   -0.024131
C     -3.719764   -0.891910   -0.381767
C     -4.236139   -0.861111   -1.822874
C     -5.224318    0.262979   -2.092911
H      2.131133   -1.709920   -1.249393
H     -0.335152   -2.496085   -0.498722
H     -1.941932   -1.826793    1.658768
H     -1.160210   -0.803969    2.843580
H     -1.813962    1.241871    1.611389
H     -3.198304    0.279604    2.101929
H     -2.014360    0.395932   -0.723881
H     -3.442612    1.236077   -0.145917
H     -4.566826   -0.960182    0.311359
H     -3.135512   -1.810682   -0.260802
H     -4.732600   -1.816192   -2.032661
H     -3.393659   -0.782704   -2.519857
H     -6.059211    0.231087   -1.385854
H     -5.633273    0.167762   -3.104008
H     -4.746582    1.244286   -2.021751
C      3.131989    0.555675    0.379707
C      3.449092    1.609095    1.217142
S      4.417754    0.245631   -0.715038
C      5.387345    1.502026   -0.079382
C      4.742347    2.152045    0.954322
C      6.692814    1.745370   -0.643486
H      2.794810    1.988897    1.990924
H      5.178657    2.981558    1.498982
O      7.257828    1.165337   -1.559522
O      7.317981    2.772483   -0.020908
H      0.859556    0.703720    1.948972
H      8.172486    2.822941   -0.496877
