38
Conformer 69, Energy = -4.9806 kcal/mol
N      0.863584   -0.745510   -0.655242
C      1.615737   -0.201537    0.361918
C      1.246669   -0.864302    1.519233
C      0.249052   -1.812000    1.186769
C      0.010851   -1.707821   -0.167838
C     -0.925218   -2.460411   -1.054212
C     -2.406021   -2.219452   -0.741395
C     -3.019115   -0.985906   -1.416792
C     -2.588983    0.381303   -0.879886
C     -2.842168    0.622649    0.609751
C     -4.309219    0.528415    0.998958
H      1.649435   -0.688385    2.508538
H     -0.248190   -2.491364    1.867461
H     -0.721212   -2.244287   -2.109869
H     -0.714588   -3.529266   -0.916287
H     -2.957476   -3.087759   -1.126997
H     -2.590940   -2.205435    0.338298
H     -4.110751   -1.064022   -1.341034
H     -2.796690   -1.021235   -2.490903
H     -1.528224    0.544348   -1.091810
H     -3.122767    1.151604   -1.451693
H     -2.479799    1.626887    0.861132
H     -2.260364   -0.075297    1.219192
H     -4.921302    1.203032    0.392131
H     -4.437543    0.807858    2.049650
H     -4.690999   -0.489643    0.878411
C      2.577200    0.850172    0.150277
C      2.870377    1.504369   -1.031595
S      3.539965    1.460580    1.433483
C      4.342226    2.584669    0.426501
C      3.881763    2.497632   -0.873203
C      5.360235    3.486237    0.916982
H      2.389832    1.295172   -1.978399
H      4.257275    3.123595   -1.675235
O      5.979166    4.316328    0.265005
O      5.612690    3.353711    2.238193
H      0.916684   -0.465825   -1.624119
H      6.308826    4.020494    2.404627
