38
Conformer 53, Energy = -7.3982 kcal/mol
N      1.039460   -0.212043   -0.324022
C      1.782934    0.168199    0.770275
C      1.053986   -0.190093    1.888941
C     -0.150722   -0.793710    1.452028
C     -0.143505   -0.788867    0.072558
C     -1.145936   -1.296226   -0.913252
C     -1.880798   -0.173184   -1.653149
C     -2.855753    0.640659   -0.789657
C     -4.323559    0.216626   -0.923487
C     -4.670670   -1.179554   -0.407796
C     -4.481376   -1.332110    1.093214
H      1.351629   -0.037239    2.917822
H     -0.940046   -1.186699    2.079970
H     -0.620521   -1.915647   -1.651611
H     -1.856011   -1.959271   -0.409822
H     -1.137429    0.516475   -2.074350
H     -2.414406   -0.601291   -2.510456
H     -2.553006    0.655411    0.261791
H     -2.800411    1.683697   -1.128991
H     -4.614083    0.279112   -1.979841
H     -4.943959    0.951608   -0.394946
H     -5.723654   -1.379199   -0.641775
H     -4.090354   -1.941205   -0.938065
H     -3.433469   -1.220757    1.382354
H     -4.811383   -2.325285    1.414280
H     -5.069558   -0.588014    1.639674
C      3.066378    0.809420    0.668132
C      3.877627    1.218631    1.708260
S      3.789096    1.166282   -0.846379
C      5.174721    1.861610   -0.122070
C      5.088000    1.822596    1.256076
C      6.225356    2.384501   -0.961398
H      3.620937    1.093667    2.753109
H      5.858463    2.210110    1.912774
O      6.291441    2.413577   -2.182009
O      7.240705    2.894837   -0.226082
H      1.331053   -0.073920   -1.282596
H      7.868823    3.206893   -0.909502
