38
Conformer 10, Energy = -9.7680 kcal/mol
N      0.776387    1.078957   -1.129400
C      1.982738    0.417476   -1.069063
C      1.965359   -0.521819   -2.085485
C      0.724634   -0.421303   -2.760104
C     -0.001960    0.575954   -2.145073
C     -1.367599    1.106073   -2.433795
C     -2.481297    0.195138   -1.910060
C     -2.562939    0.164471   -0.380294
C     -3.742388   -0.686899    0.094556
C     -3.822812   -0.722835    1.620530
C     -4.993614   -1.567610    2.096889
H      2.761760   -1.215483   -2.323553
H      0.397293   -1.017558   -3.602399
H     -1.477220    1.205564   -3.521097
H     -1.482539    2.114711   -2.018263
H     -2.347307   -0.824503   -2.292540
H     -3.436540    0.559837   -2.308146
H     -2.670961    1.186590    0.002391
H     -1.635189   -0.242675    0.037812
H     -3.637376   -1.707991   -0.292012
H     -4.676464   -0.281356   -0.312959
H     -2.893139   -1.131874    2.033065
H     -3.931228    0.295389    2.011939
H     -5.032219   -1.579600    3.190635
H     -4.898780   -2.601209    1.748987
H     -5.942823   -1.166237    1.727806
C      2.998204    0.724605   -0.094262
C      2.947105    1.670119    0.913173
S      4.499241   -0.108367   -0.065990
C      5.075454    0.782039    1.274837
C      4.138165    1.703589    1.698404
C      6.391275    0.505041    1.797907
H      2.100458    2.318951    1.095733
H      4.299046    2.373081    2.535672
O      7.216605   -0.312676    1.417074
O      6.681473    1.299619    2.855181
H      0.495838    1.824952   -0.509284
H      7.583359    1.007439    3.101187
