38
Conformer 67, Energy = -5.5250 kcal/mol
N      0.554877    1.178592   -0.142189
C      1.645295    1.029510    0.685654
C      1.171617    0.471254    1.860263
C     -0.225242    0.281783    1.728690
C     -0.586857    0.722320    0.473431
C     -1.919687    0.761754   -0.198543
C     -2.080381   -0.316628   -1.274285
C     -2.041614   -1.761533   -0.767858
C     -3.093702   -2.154040    0.275423
C     -4.537662   -2.160156   -0.235505
C     -5.282938   -0.857701    0.012961
H      1.765771    0.221783    2.730210
H     -0.892969   -0.135851    2.471546
H     -2.047213    1.745772   -0.667839
H     -2.714051    0.680783    0.551164
H     -1.285791   -0.199472   -2.023070
H     -3.018948   -0.147305   -1.813077
H     -2.138080   -2.430249   -1.632889
H     -1.049249   -1.965903   -0.347274
H     -2.854587   -3.180108    0.585758
H     -3.000118   -1.541926    1.178784
H     -4.573204   -2.415672   -1.300456
H     -5.082157   -2.952422    0.293619
H     -6.330170   -0.963368   -0.288757
H     -4.859814   -0.027335   -0.555550
H     -5.265564   -0.592157    1.074835
C      2.979756    1.415044    0.303064
C      3.392235    1.961798   -0.897963
S      4.311292    1.226847    1.370482
C      5.426075    1.867817    0.243934
C      4.794964    2.221702   -0.932313
C      6.819418    1.970086    0.604232
H      2.731523    2.173272   -1.728512
H      5.316369    2.648547   -1.781462
O      7.371518    1.654408    1.648423
O      7.554345    2.497318   -0.403391
H      0.586649    1.563968   -1.075045
H      8.458295    2.507064   -0.026496
