38
Conformer 65, Energy = -6.5184 kcal/mol
N      0.673725    0.399001    0.744820
C      2.033448    0.334682    0.953903
C      2.238040   -0.657896    1.896762
C      0.977992   -1.195833    2.254494
C      0.019896   -0.525394    1.524845
C     -1.465621   -0.675311    1.495237
C     -1.908805   -1.598714    0.358149
C     -3.416075   -1.870071    0.348327
C     -4.311681   -0.637525    0.185338
C     -4.044056    0.215731   -1.056609
C     -4.229134   -0.540250   -2.363001
H      3.195931   -0.970503    2.292591
H      0.793198   -1.989124    2.967670
H     -1.807512   -1.079679    2.455844
H     -1.923151    0.314854    1.387235
H     -1.391876   -2.562972    0.452788
H     -1.594800   -1.185479   -0.607925
H     -3.636182   -2.586352   -0.452278
H     -3.690906   -2.373101    1.284143
H     -4.220152   -0.001113    1.073464
H     -5.356267   -0.973519    0.164940
H     -3.035199    0.640860   -1.018928
H     -4.737252    1.065632   -1.045715
H     -4.117177    0.142790   -3.211176
H     -3.484821   -1.333815   -2.476483
H     -5.225802   -0.989187   -2.419247
C      2.973673    1.184872    0.269094
C      2.704032    2.158903   -0.673985
S      4.661412    1.081050    0.564450
C      5.031757    2.321059   -0.551978
C      3.883077    2.809628   -1.144123
C      6.383649    2.764497   -0.807903
H      1.711051    2.408302   -1.024559
H      3.892242    3.602006   -1.884494
O      6.731624    3.641316   -1.587200
O      7.317188    2.107812   -0.083910
H      0.217116    1.033366    0.105304
H      8.157417    2.519077   -0.369884
