38
Conformer 26, Energy = -8.6370 kcal/mol
N      1.053939    0.792963   -0.685000
C      2.270590    0.795509   -1.329159
C      2.011256    0.566950   -2.667962
C      0.610646    0.423498   -2.825140
C      0.035960    0.565702   -1.579442
C     -1.393736    0.508347   -1.151354
C     -1.770695   -0.890366   -0.656842
C     -3.260523   -1.041800   -0.331847
C     -3.704722   -0.211525    0.875357
C     -5.191666   -0.370264    1.204277
C     -5.563247   -1.762458    1.691010
H      2.748823    0.507369   -3.457312
H      0.079854    0.234775   -3.749673
H     -1.561986    1.253114   -0.365208
H     -2.034468    0.788443   -1.996444
H     -1.514769   -1.627484   -1.429376
H     -1.173365   -1.150819    0.226275
H     -3.858199   -0.770018   -1.210217
H     -3.449922   -2.103142   -0.135636
H     -3.103463   -0.480449    1.752206
H     -3.520970    0.850458    0.678093
H     -5.797761   -0.115675    0.327083
H     -5.451137    0.351052    1.988533
H     -6.611370   -1.781840    2.006756
H     -4.946870   -2.057803    2.545912
H     -5.442947   -2.510033    0.901773
C      3.521912    1.005196   -0.651537
C      4.781349    1.026068   -1.217282
S      3.609280    1.270125    1.040961
C      5.313962    1.412428    1.024067
C      5.809055    1.259523   -0.257195
C      6.088522    1.660095    2.219160
H      4.966289    0.880850   -2.274616
H      6.866152    1.313436   -0.493118
O      7.304116    1.774989    2.295569
O      5.338284    1.766781    3.338948
H      0.939211    0.935912    0.309620
H      6.002616    1.929694    4.038760
