38
Conformer 18, Energy = -9.0142 kcal/mol
N      0.614504    0.414389   -1.406382
C      1.566472    1.250364   -0.866586
C      1.132159    2.542969   -1.103814
C     -0.103593    2.475660   -1.791653
C     -0.410448    1.142528   -1.963012
C     -1.585173    0.488597   -2.612538
C     -2.831905    0.490111   -1.723398
C     -2.699886   -0.426549   -0.501627
C     -3.995802   -0.451213    0.313102
C     -3.952738   -1.428122    1.490231
C     -2.943533   -1.044989    2.561725
H      1.646576    3.449868   -0.812318
H     -0.705582    3.312892   -2.121419
H     -1.337045   -0.538267   -2.907649
H     -1.813952    1.029874   -3.539231
H     -3.060678    1.511629   -1.394529
H     -3.683160    0.153733   -2.328406
H     -2.453434   -1.443198   -0.830547
H     -1.876432   -0.078584    0.130326
H     -4.826488   -0.741505   -0.342078
H     -4.220901    0.557499    0.680579
H     -3.734028   -2.439519    1.128211
H     -4.948818   -1.463906    1.947548
H     -1.917330   -1.110511    2.188792
H     -3.118158   -0.025595    2.920052
H     -3.028097   -1.723737    3.416478
C      2.750640    0.766430   -0.203889
C      3.125341   -0.547357    0.008995
S      3.919857    1.841688    0.447590
C      4.915367    0.569612    1.007658
C      4.366596   -0.660742    0.703745
C      6.145184    0.881112    1.694819
H      2.547297   -1.404209   -0.311802
H      4.834704   -1.602074    0.968174
O      6.626144    1.973709    1.958713
O      6.802341   -0.242293    2.068352
H      0.654921   -0.594426   -1.387279
H      7.599081    0.113731    2.513066
