38
Conformer 19, Energy = -9.0127 kcal/mol
N      0.419718    1.497762   -0.723302
C      1.624816    0.930368   -1.073053
C      1.496234    0.517634   -2.387950
C      0.189021    0.838682   -2.827049
C     -0.465872    1.440548   -1.773630
C     -1.856001    1.975314   -1.668152
C     -2.902802    0.874049   -1.477263
C     -2.810959    0.187264   -0.109659
C     -3.923726   -0.849757    0.062725
C     -3.937238   -1.500108    1.447992
C     -2.704893   -2.344112    1.735492
H      2.261652    0.031010   -2.979174
H     -0.228904    0.645413   -3.806940
H     -1.925270    2.703787   -0.851324
H     -2.086782    2.522712   -2.590713
H     -3.897066    1.326295   -1.580727
H     -2.811489    0.123879   -2.272957
H     -2.883725    0.939821    0.684490
H     -1.836043   -0.301097   -0.009246
H     -4.894710   -0.364424   -0.096983
H     -3.828366   -1.625776   -0.706564
H     -4.823098   -2.142428    1.520555
H     -4.040518   -0.729930    2.221469
H     -2.821774   -2.864927    2.691576
H     -1.803134   -1.728446    1.803060
H     -2.553364   -3.097506    0.955962
C      2.740087    0.835411   -0.165970
C      2.811021    1.285089    1.139484
S      4.218599    0.097329   -0.632285
C      4.945520    0.372895    0.890200
C      4.075548    1.020101    1.745461
C      6.300790   -0.066149    1.119071
H      2.001567    1.785110    1.655160
H      4.333992    1.291470    2.762537
O      7.064156   -0.642995    0.357678
O      6.714793    0.236938    2.372020
H      0.208241    1.890449    0.182765
H      7.629977   -0.112079    2.385243
