38
Conformer 44, Energy = -7.7856 kcal/mol
N      1.181207   -0.610338   -0.604528
C      1.911698   -0.031263    0.409214
C      1.167080   -0.185380    1.565731
C     -0.029487   -0.865787    1.234592
C     -0.003065   -1.114778   -0.121092
C     -0.993907   -1.796337   -1.005485
C     -1.775866   -0.822850   -1.892600
C     -2.649759    0.194499   -1.148473
C     -3.749639   -0.448881   -0.301467
C     -4.655637    0.611489    0.325880
C     -5.748165   -0.020306    1.173709
H      1.449653    0.155511    2.553599
H     -0.826109   -1.139628    1.914683
H     -1.680839   -2.399667   -0.401410
H     -0.459778   -2.505779   -1.650722
H     -1.075388   -0.270297   -2.531969
H     -2.413499   -1.406622   -2.568386
H     -3.113572    0.850626   -1.895945
H     -2.025270    0.839278   -0.519206
H     -4.349412   -1.121320   -0.926548
H     -3.305965   -1.055203    0.495811
H     -5.117707    1.219806   -0.460314
H     -4.060187    1.286713    0.951414
H     -6.381562   -0.678499    0.570461
H     -5.319435   -0.609572    1.990600
H     -6.384127    0.755262    1.611824
C      3.195100    0.588002    0.196698
C      3.886546    0.717488   -0.993239
S      4.080769    1.289211    1.489139
C      5.373733    1.761213    0.475913
C      5.134507    1.389468   -0.833047
C      6.541302    2.455460    0.970431
H      3.529266    0.353008   -1.947499
H      5.829157    1.593279   -1.640523
O      7.505350    2.826321    0.314478
O      6.509857    2.692243    2.300785
H      1.469608   -0.654706   -1.571318
H      7.353542    3.157933    2.468809
