38
Conformer 22, Energy = -8.8938 kcal/mol
N      1.234128    0.186460   -0.660787
C      2.256183    1.078432   -0.898880
C      1.816275    1.917570   -1.908004
C      0.508409    1.519434   -2.276655
C      0.165695    0.442632   -1.487300
C     -1.083629   -0.372615   -1.441150
C     -2.062708    0.163927   -0.395117
C     -3.345570   -0.669794   -0.355151
C     -4.321980   -0.133705    0.694183
C     -5.664843   -0.867167    0.703540
C     -5.558446   -2.323837    1.127587
H      2.374700    2.737695   -2.341173
H     -0.114827    1.973523   -3.036585
H     -0.834185   -1.417791   -1.219685
H     -1.556868   -0.364806   -2.430845
H     -2.310121    1.209325   -0.619960
H     -1.590181    0.157539    0.595490
H     -3.088789   -1.711321   -0.131658
H     -3.822785   -0.656086   -1.342427
H     -4.513645    0.928223    0.496137
H     -3.864551   -0.191603    1.689411
H     -6.337205   -0.350740    1.399051
H     -6.129145   -0.808724   -0.287750
H     -4.995090   -2.913970    0.398978
H     -5.067870   -2.414985    2.101780
H     -6.557179   -2.764859    1.208831
C      3.503393    1.053855   -0.177923
C      3.883183    0.185597    0.828778
S      4.755349    2.181563   -0.507671
C      5.792989    1.519546    0.678808
C      5.196060    0.452227    1.320360
C      7.099129    2.097969    0.881558
H      3.260218   -0.612861    1.210159
H      5.679631   -0.113478    2.108554
O      7.621384    3.043794    0.309312
O      7.781808    1.450913    1.855552
H      1.261160   -0.552268    0.027198
H      8.629924    1.939986    1.883452
