38
Conformer 14, Energy = -9.2233 kcal/mol
N      0.889437    1.035314    0.350915
C      1.853930    0.997268   -0.630501
C      1.188179    1.016996   -1.842063
C     -0.202523    1.064742   -1.577207
C     -0.365764    1.068404   -0.207503
C     -1.602198    1.110696    0.627975
C     -1.919864   -0.229754    1.297102
C     -2.231162   -1.387531    0.339921
C     -3.394342   -1.158470   -0.629929
C     -4.726948   -0.891529    0.070236
C     -5.867158   -0.784110   -0.930860
H      1.648579    0.998938   -2.820999
H     -0.999209    1.089710   -2.309851
H     -2.451274    1.447052    0.022368
H     -1.471110    1.869768    1.409976
H     -1.074719   -0.529950    1.930281
H     -2.767037   -0.087322    1.978519
H     -2.446020   -2.279694    0.941879
H     -1.334147   -1.628487   -0.243238
H     -3.161259   -0.333321   -1.312092
H     -3.492940   -2.054172   -1.256340
H     -4.944874   -1.699598    0.777939
H     -4.676317    0.040435    0.643244
H     -5.693127    0.034332   -1.636729
H     -5.978383   -1.712203   -1.500587
H     -6.810613   -0.589909   -0.411127
C      3.263803    0.948557   -0.349927
C      4.294302    0.912626   -1.268321
S      3.874423    0.927050    1.252883
C      5.502420    0.870429    0.730493
C      5.577862    0.867910   -0.649520
C      6.616603    0.831520    1.650607
H      4.142286    0.917913   -2.340753
H      6.517211    0.835199   -1.190420
O      7.805046    0.790083    1.363214
O      6.246444    0.844397    2.950983
H      1.089653    1.031777    1.342241
H      7.100811    0.814529    3.427195
