38
Conformer 57, Energy = -6.8500 kcal/mol
N      0.642561    1.435845    0.105306
C      1.814158    1.192858    0.787135
C      1.454424    0.896656    2.090427
C      0.043280    0.961205    2.185886
C     -0.441870    1.291214    0.938371
C     -1.841493    1.495421    0.459936
C     -2.349815    0.348296   -0.419397
C     -2.564985   -0.953555    0.360255
C     -3.033563   -2.118261   -0.518697
C     -4.367716   -1.915187   -1.240700
C     -5.535550   -1.659953   -0.301013
H      2.133907    0.656576    2.898268
H     -0.553001    0.781367    3.071442
H     -1.882558    2.428311   -0.116612
H     -2.511965    1.631547    1.317311
H     -1.656217    0.170689   -1.250493
H     -3.301124    0.666866   -0.860709
H     -3.279429   -0.785744    1.174259
H     -1.624183   -1.257207    0.834450
H     -2.261511   -2.329597   -1.269082
H     -3.105361   -3.015593    0.108780
H     -4.582429   -2.818230   -1.825097
H     -4.291325   -1.094298   -1.961883
H     -5.619452   -2.454738    0.446840
H     -6.472291   -1.626913   -0.866646
H     -5.429748   -0.703459    0.219231
C      3.112347    1.262382    0.166134
C      3.405837    1.552668   -1.153115
S      4.551670    0.971419    1.055056
C      5.557832    1.229640   -0.302197
C      4.806710    1.533974   -1.421123
C      6.998602    1.131001   -0.237416
H      2.662044    1.771031   -1.908229
H      5.248033    1.734307   -2.391277
O      7.786387    1.300116   -1.158284
O      7.467129    0.817346    0.990997
H      0.583906    1.680989   -0.872594
H      8.436760    0.790608    0.864480
