38
Conformer 59, Energy = -6.7740 kcal/mol
N      1.074418    0.663298   -0.312508
C      2.384904    0.357315   -0.605698
C      2.358679   -0.819357   -1.334239
C      1.008791   -1.222347   -1.476555
C      0.227649   -0.287038   -0.832229
C     -1.253860   -0.205973   -0.661552
C     -1.704227   -0.901042    0.625626
C     -3.202582   -0.746924    0.906114
C     -4.086660   -1.438827   -0.134795
C     -5.566110   -1.471953    0.257482
C     -6.204721   -0.093570    0.330679
H      3.220990   -1.342556   -1.727480
H      0.648458   -2.102756   -1.993408
H     -1.733588   -0.668948   -1.531509
H     -1.566731    0.845368   -0.648850
H     -1.444831   -1.966766    0.586494
H     -1.153302   -0.481878    1.477799
H     -3.448792    0.319552    0.962400
H     -3.410624   -1.174110    1.894833
H     -3.985511   -0.942245   -1.106491
H     -3.744255   -2.472387   -0.267883
H     -5.685756   -1.981035    1.220903
H     -6.108928   -2.068714   -0.485287
H     -5.775480    0.504861    1.139545
H     -6.074491    0.450511   -0.610097
H     -7.278576   -0.187067    0.522027
C      3.494544    1.174714   -0.185630
C      3.454196    2.345999    0.547374
S      5.114622    0.760674   -0.573568
C      5.758200    2.127236    0.226108
C      4.750948    2.891447    0.783080
C      7.175997    2.403306    0.284288
H      2.544063    2.807250    0.907940
H      4.940657    3.804467    1.336707
O      7.714930    3.354589    0.833663
O      7.935374    1.482640   -0.350231
H      0.774093    1.471066    0.213956
H      8.847513    1.810798   -0.219009
