38
Conformer 36, Energy = -8.3053 kcal/mol
N      0.557361   -0.708767    0.881253
C      1.610606    0.066910    1.311288
C      1.398693    0.302637    2.658567
C      0.193163   -0.337216    3.035699
C     -0.317278   -0.954008    1.913340
C     -1.557635   -1.762743    1.724230
C     -2.817740   -0.900259    1.603542
C     -2.864259    0.044925    0.395115
C     -2.852062   -0.684217   -0.950931
C     -2.882668    0.264920   -2.152021
C     -4.179010    1.050310   -2.276327
H      2.041216    0.879543    3.311534
H     -0.254671   -0.341649    4.021343
H     -1.456916   -2.423280    0.855739
H     -1.673158   -2.425584    2.591562
H     -3.690249   -1.564501    1.564716
H     -2.930422   -0.296911    2.513710
H     -3.782691    0.637391    0.479200
H     -2.032500    0.757160    0.440659
H     -1.944168   -1.291325   -1.034625
H     -3.702068   -1.374947   -1.005594
H     -2.747868   -0.327866   -3.064771
H     -2.037254    0.960856   -2.099179
H     -5.044543    0.380519   -2.294329
H     -4.302806    1.755384   -1.449311
H     -4.179216    1.628813   -3.205868
C      2.676505    0.493567    0.441129
C      2.798567    0.274761   -0.918561
S      4.016302    1.389584    1.032255
C      4.753022    1.483257   -0.507686
C      3.989510    0.841692   -1.463040
C      6.011312    2.174443   -0.651240
H      2.074201   -0.264373   -1.515105
H      4.271930    0.782033   -2.507955
O      6.681280    2.742076    0.199551
O      6.447559    2.148310   -1.932873
H      0.436867   -1.045253   -0.063180
H      7.291093    2.643405   -1.881840
