38
Conformer 60, Energy = -6.7278 kcal/mol
N      1.163627   -0.597717   -0.088240
C      2.168901   -0.197133   -0.939024
C      1.970121   -0.867650   -2.131684
C      0.819415   -1.681625   -1.990345
C      0.330628   -1.493427   -0.714157
C     -0.851561   -2.089210   -0.024161
C     -2.175172   -1.442370   -0.443794
C     -2.315219    0.006358    0.041301
C     -3.685204    0.613449   -0.283586
C     -4.690237    0.572248    0.871343
C     -5.093150   -0.826639    1.304244
H      2.584874   -0.784348   -3.018114
H      0.391810   -2.332754   -2.742215
H     -0.732620   -2.024599    1.064407
H     -0.890877   -3.158525   -0.267456
H     -2.278566   -1.472370   -1.535913
H     -2.989964   -2.049835   -0.037109
H     -1.553443    0.613890   -0.462510
H     -2.109857    0.074226    1.116028
H     -4.116795    0.145153   -1.176164
H     -3.532748    1.670973   -0.535619
H     -5.592529    1.112464    0.559841
H     -4.284308    1.114178    1.733761
H     -4.257556   -1.354249    1.773062
H     -5.450108   -1.415956    0.454011
H     -5.900990   -0.772836    2.041284
C      3.189073    0.745727   -0.566148
C      4.232693    1.196088   -1.350152
S      3.237272    1.469926    0.988070
C      4.639814    2.378727    0.622742
C      5.064837    2.132095   -0.669019
C      5.260357    3.272915    1.574000
H      4.399320    0.872570   -2.370377
H      5.937625    2.605555   -1.105019
O      6.258766    3.957001    1.395336
O      4.628359    3.317084    2.768505
H      1.058521   -0.263909    0.860645
H      5.164890    3.954124    3.282227
