38
Conformer 68, Energy = -5.3280 kcal/mol
N      1.003170   -0.776120   -0.577352
C      1.736519   -0.160699    0.412448
C      1.289766   -0.683612    1.613257
C      0.266645   -1.621349    1.333805
C      0.091626   -1.651123   -0.033928
C     -0.838456   -2.461058   -0.874989
C     -1.773099   -1.636040   -1.765705
C     -2.993365   -1.034531   -1.055747
C     -2.674486    0.175632   -0.175747
C     -3.924166    0.938563    0.273522
C     -4.838549    0.123802    1.175368
H      1.658117   -0.421657    2.596928
H     -0.287919   -2.205970    2.056863
H     -0.226295   -3.105807   -1.519310
H     -1.428018   -3.133852   -0.240394
H     -1.224541   -0.850968   -2.299621
H     -2.160117   -2.314700   -2.537557
H     -3.491598   -1.812332   -0.465774
H     -3.706130   -0.723513   -1.830211
H     -2.120579   -0.138770    0.713343
H     -2.030790    0.869440   -0.729827
H     -4.487034    1.282428   -0.602018
H     -3.606282    1.835938    0.817722
H     -4.295052   -0.255546    2.046460
H     -5.274264   -0.725976    0.641738
H     -5.663247    0.747128    1.535655
C      2.753612    0.822258    0.138973
C      3.126671    1.335930   -1.088929
S      3.688598    1.523219    1.396238
C      4.584044    2.500929    0.317593
C      4.175464    2.297234   -0.986398
C      5.621136    3.405700    0.759829
H      2.677537    1.048656   -2.030672
H      4.613267    2.819278   -1.830138
O      6.304960    4.136199    0.055587
O      5.811036    3.402166    2.098045
H      1.112126   -0.604373   -1.566452
H      6.529693    4.053093    2.227393
