38
Conformer 64, Energy = -6.5400 kcal/mol
N      1.325517    0.077154   -0.146503
C      2.425507    0.362235    0.631296
C      2.166202   -0.163308    1.884731
C      0.887704   -0.771118    1.853746
C      0.381493   -0.606140    0.582336
C     -0.919475   -1.036324   -0.012272
C     -1.975724    0.064936    0.106763
C     -3.291590   -0.272961   -0.601952
C     -4.052036   -1.429099    0.051068
C     -5.375244   -1.752511   -0.647963
C     -6.420912   -0.656823   -0.509790
H      2.827104   -0.119237    2.741050
H      0.390612   -1.272141    2.674566
H     -1.256494   -1.944336    0.499645
H     -0.772175   -1.302281   -1.066345
H     -2.171812    0.284432    1.164322
H     -1.583162    0.991487   -0.332020
H     -3.092511   -0.507876   -1.653972
H     -3.913844    0.628345   -0.591652
H     -3.434469   -2.333355    0.026222
H     -4.239564   -1.201610    1.107236
H     -5.780365   -2.673380   -0.211891
H     -5.196895   -1.957338   -1.709968
H     -6.597083   -0.412736    0.543075
H     -7.370216   -0.987571   -0.943662
H     -6.120687    0.256195   -1.031771
C      3.571976    1.078884    0.134970
C      3.848019    1.431713   -1.172734
S      4.818249    1.619409    1.183782
C      5.715730    2.324229   -0.088867
C      5.076421    2.144764   -1.300634
C      6.972335    3.006029    0.125029
H      3.211303    1.192093   -2.014434
H      5.477400    2.511470   -2.239260
O      7.671479    3.536958   -0.727185
O      7.365186    3.029133    1.418181
H      1.219146    0.343593   -1.114871
H      8.212872    3.516683    1.389728
