38
Conformer  8, Energy = -10.0839 kcal/mol
N      0.865340   -0.348021   -0.566175
C      2.101533   -0.086616   -1.112662
C      2.013614   -0.393491   -2.458036
C      0.696654   -0.845453   -2.719717
C      0.000169   -0.806842   -1.529996
C     -1.414415   -1.165540   -1.213784
C     -2.320630    0.067328   -1.243427
C     -3.800686   -0.261192   -1.026503
C     -4.143405   -0.931695    0.307982
C     -3.706802   -0.171379    1.562346
C     -4.330675    1.210263    1.681769
H      2.810632   -0.303359   -3.184130
H      0.300070   -1.163080   -3.675712
H     -1.450150   -1.645786   -0.229144
H     -1.771158   -1.905393   -1.940765
H     -2.223376    0.564380   -2.217823
H     -1.985357    0.800393   -0.499870
H     -4.381435    0.663527   -1.127036
H     -4.139865   -0.917603   -1.837921
H     -5.229781   -1.082636    0.346355
H     -3.701573   -1.934791    0.335334
H     -3.997437   -0.760985    2.440336
H     -2.615349   -0.084936    1.597191
H     -4.056866    1.664361    2.639528
H     -5.422719    1.153614    1.633963
H     -3.983304    1.877573    0.887631
C      3.213356    0.410268   -0.347262
C      4.482615    0.694949   -0.811337
S      3.092338    0.729557    1.334089
C      4.720630    1.243918    1.444331
C      5.348655    1.173431    0.215937
C      5.243262    1.671317    2.719441
H      4.785584    0.567996   -1.843475
H      6.384296    1.452645    0.059341
O      4.677265    1.729551    3.801736
O      6.541367    2.042824    2.624727
H      0.636916   -0.212739    0.409829
H      6.760688    2.303240    3.542909
