38
Conformer 52, Energy = -7.4939 kcal/mol
N      1.256631   -0.499238    0.416812
C      2.408372   -0.217085   -0.283467
C      2.390571   -1.021822   -1.409473
C      1.210080   -1.803015   -1.375898
C      0.517269   -1.457751   -0.235147
C     -0.786176   -1.950679    0.299588
C     -1.954252   -1.102087   -0.209003
C     -3.288717   -1.611018    0.340298
C     -4.503389   -0.875609   -0.232772
C     -4.568661    0.598805    0.166747
C     -5.848436    1.251977   -0.333468
H      3.150459   -1.052954   -2.179964
H      0.899121   -2.534950   -2.110299
H     -0.764871   -1.938026    1.396719
H     -0.926552   -2.996356   -0.000358
H     -1.976654   -1.119972   -1.305895
H     -1.799554   -0.058198    0.089070
H     -3.391625   -2.676599    0.099606
H     -3.293254   -1.532558    1.434034
H     -5.408450   -1.383251    0.123622
H     -4.503007   -0.963864   -1.326048
H     -4.520208    0.691808    1.257464
H     -3.713661    1.143623   -0.246369
H     -5.914306    1.199375   -1.425135
H     -6.730982    0.761106    0.088367
H     -5.875725    2.306804   -0.042176
C      3.375756    0.753714    0.158804
C      3.434829    1.391210    1.383856
S      4.658947    1.271656   -0.856161
C      5.284741    2.342787    0.320055
C      4.528497    2.301982    1.475936
C      6.453345    3.161500    0.088660
H      2.735933    1.220281    2.192312
H      4.754734    2.902051    2.350631
O      6.957768    3.955310    0.871177
O      7.002152    2.991621   -1.134994
H      0.983544   -0.054238    1.281483
H      7.765730    3.603259   -1.128612
