38
Conformer 12, Energy = -9.5571 kcal/mol
N      1.199713    0.861855   -0.668160
C      2.435980    0.549217   -1.187601
C      2.221877    0.088641   -2.473493
C      0.828173    0.122868   -2.724820
C      0.211902    0.599639   -1.586576
C     -1.231005    0.829497   -1.281452
C     -1.863099   -0.401921   -0.629249
C     -3.339824   -0.165713   -0.303864
C     -3.970797   -1.409959    0.324128
C     -5.466122   -1.251399    0.603742
C     -5.768508   -0.272350    1.729076
H      2.984795   -0.242912   -3.165507
H      0.328526   -0.177123   -3.636869
H     -1.335841    1.699884   -0.622294
H     -1.763405    1.070445   -2.210028
H     -1.320991   -0.656835    0.291664
H     -1.767707   -1.265064   -1.299822
H     -3.880829    0.094138   -1.221838
H     -3.426408    0.687781    0.377496
H     -3.837731   -2.258453   -0.358844
H     -3.446358   -1.666296    1.252629
H     -5.874377   -2.231818    0.878854
H     -5.986801   -0.935546   -0.308111
H     -6.842550   -0.262815    1.939607
H     -5.247987   -0.557402    2.648633
H     -5.472077    0.748118    1.465307
C      3.662099    0.701845   -0.451759
C      4.934311    0.375051   -0.877684
S      3.696964    1.341840    1.138666
C      5.396794    1.192267    1.261112
C      5.928849    0.653918    0.104631
C      6.133082    1.589769    2.440167
H      5.150832   -0.048378   -1.851014
H      6.989414    0.471395   -0.029318
O      7.342707    1.519011    2.608473
O      5.351422    2.084398    3.426014
H      1.051529    1.219706    0.266085
H      5.993449    2.302299    4.132020
