38
Conformer 70, Energy = -4.0617 kcal/mol
N      0.817295   -0.058888   -0.062088
C      2.144626   -0.163346    0.290039
C      2.371348   -1.499830    0.570170
C      1.157201   -2.204020    0.383059
C      0.204122   -1.288310   -0.008025
C     -1.241283   -1.465637   -0.339685
C     -2.127989   -1.207037    0.881374
C     -3.621292   -1.412352    0.601692
C     -4.394314   -0.126372    0.286959
C     -4.019295    0.591214   -1.009049
C     -4.292317   -0.233386   -2.257374
H      3.313925   -1.933115    0.879639
H      0.998367   -3.265951    0.521437
H     -1.503886   -0.796299   -1.164202
H     -1.403492   -2.487984   -0.703203
H     -1.831866   -1.910602    1.671446
H     -1.947578   -0.203855    1.287170
H     -4.070883   -1.831838    1.511612
H     -3.776040   -2.163487   -0.180565
H     -5.464271   -0.368881    0.255709
H     -4.267321    0.575082    1.121234
H     -2.970318    0.902783   -0.986113
H     -4.609345    1.513887   -1.072349
H     -3.671337   -1.132571   -2.293737
H     -4.074132    0.357709   -3.152609
H     -5.342510   -0.538932   -2.302444
C      3.037936    0.966464    0.326672
C      2.746640    2.286377    0.037162
S      4.688371    0.794644    0.766024
C      5.014172    2.461318    0.573058
C      3.878814    3.142459    0.178331
C      6.321035    3.034373    0.804283
H      1.770076    2.642112   -0.264311
H      3.864903    4.211932   -0.000924
O      6.635458    4.211258    0.689036
O      7.251206    2.130470    1.184593
H      0.354431    0.800465   -0.321243
H      8.059540    2.669744    1.297221
