38
Conformer  1, Energy = -11.1484 kcal/mol
N      1.064773    0.592177   -1.096476
C      1.947123   -0.413573   -0.772385
C      1.368781   -1.598375   -1.188792
C      0.113817   -1.292873   -1.770449
C     -0.057623    0.073831   -1.696378
C     -1.184242    0.941952   -2.150303
C     -2.042729    1.462495   -0.994001
C     -2.843869    0.357693   -0.295575
C     -3.750203    0.938265    0.793115
C     -4.491446   -0.131078    1.598440
C     -5.494347   -0.924867    0.775618
H      1.798949   -2.585944   -1.087697
H     -0.590961   -1.997127   -2.194044
H     -1.812822    0.392902   -2.862031
H     -0.771074    1.798138   -2.698455
H     -2.742024    2.206698   -1.395394
H     -1.414300    1.982357   -0.260082
H     -2.162390   -0.372526    0.155381
H     -3.446384   -0.173465   -1.040832
H     -3.141565    1.529640    1.488448
H     -4.475111    1.627432    0.343014
H     -3.771474   -0.818270    2.057878
H     -5.026794    0.361600    2.418898
H     -4.997086   -1.533655    0.014930
H     -6.059029   -1.602489    1.424098
H     -6.207390   -0.260719    0.277131
C      3.209351   -0.177436   -0.124402
C      4.152118   -1.121996    0.231186
S      3.728929    1.398125    0.312706
C      5.201105    0.826676    0.971644
C      5.295751   -0.546990    0.860249
C      6.135172    1.768206    1.539763
H      4.034111   -2.183535    0.051115
H      6.147669   -1.116190    1.214198
O      6.040683    2.983728    1.632946
O      7.240794    1.146912    2.012693
H      1.228345    1.572238   -0.907467
H      7.775392    1.889641    2.361310
