38
Conformer 47, Energy = -7.5509 kcal/mol
N      1.316367   -0.243572   -0.103946
C      2.476186    0.233805   -0.673029
C      2.344342    0.054951   -2.039272
C      1.083034   -0.538144   -2.288780
C      0.460062   -0.713183   -1.071688
C     -0.875971   -1.286996   -0.734974
C     -1.946045   -0.197142   -0.646556
C     -3.316123   -0.789426   -0.308165
C     -4.384256    0.302630   -0.216647
C     -5.793623   -0.245790    0.016285
C     -5.964583   -0.928735    1.364388
H      3.078126    0.322582   -2.788867
H      0.675068   -0.806166   -3.255125
H     -0.815041   -1.830419    0.216153
H     -1.156797   -2.021594   -1.499836
H     -1.665877    0.539070    0.117723
H     -2.004353    0.344046   -1.599625
H     -3.600464   -1.518392   -1.076536
H     -3.247917   -1.328576    0.643323
H     -4.390865    0.876876   -1.151445
H     -4.126629    1.006379    0.584253
H     -6.058582   -0.946571   -0.783934
H     -6.504242    0.587197   -0.044152
H     -7.012026   -1.211048    1.511808
H     -5.364167   -1.840596    1.431520
H     -5.675379   -0.261727    2.182608
C      3.557127    0.792017    0.098886
C      3.626761    0.946580    1.470781
S      4.989384    1.373217   -0.647715
C      5.697285    1.826889    0.840313
C      4.852761    1.539355    1.895253
C      7.008661    2.428392    0.931069
H      2.842795    0.653550    2.156809
H      5.107693    1.747404    2.928608
O      7.583935    2.780205    1.952092
O      7.614084    2.595050   -0.265837
H      1.117851   -0.246461    0.886223
H      8.471416    3.003940   -0.031964
