38
Conformer 23, Energy = -8.8550 kcal/mol
N      1.238445    0.093693   -0.847902
C      2.093739    1.172094   -0.798741
C      1.471513    2.197070   -1.490309
C      0.222717    1.721418   -1.958470
C      0.097644    0.412098   -1.546084
C     -1.004977   -0.572666   -1.751771
C     -1.992028   -0.559101   -0.581802
C     -3.126504   -1.561840   -0.803982
C     -4.082560   -1.673329    0.387056
C     -4.882178   -0.396012    0.646628
C     -5.896716   -0.594534    1.762596
H      1.869657    3.191647   -1.646447
H     -0.506126    2.278371   -2.533539
H     -0.583022   -1.577859   -1.875023
H     -1.532036   -0.335650   -2.684282
H     -2.400796    0.451496   -0.464912
H     -1.466403   -0.799425    0.351029
H     -3.690779   -1.289585   -1.704233
H     -2.695785   -2.553740   -0.989344
H     -4.779319   -2.497470    0.189162
H     -3.518601   -1.947087    1.287098
H     -4.211678    0.423544    0.925938
H     -5.407285   -0.092539   -0.266331
H     -6.613659   -1.381066    1.506289
H     -5.400966   -0.872287    2.698247
H     -6.455520    0.330553    1.935560
C      3.368673    1.132917   -0.128726
C      3.936132    0.071371    0.551472
S      4.408526    2.498676   -0.093264
C      5.602809    1.683779    0.819056
C      5.217288    0.386765    1.095121
C      6.812189    2.379398    1.186746
H      3.468141   -0.897694    0.665361
H      5.827417   -0.306633    1.662621
O      7.146980    3.528807    0.938605
O      7.641963    1.585366    1.903952
H      1.419483   -0.806372   -0.427328
H      8.403622    2.175427    2.079952
