38
Conformer 43, Energy = -7.8148 kcal/mol
N      1.161811   -0.105493   -0.221614
C      2.097390    0.195493    0.743301
C      1.512637   -0.102392    1.962070
C      0.205062   -0.588217    1.719156
C      0.007508   -0.580061    0.354959
C     -1.177766   -0.982171   -0.459663
C     -2.114607    0.203706   -0.700542
C     -3.295398   -0.131344   -1.616616
C     -4.230720   -1.237455   -1.117212
C     -4.844804   -1.010538    0.266059
C     -5.694677    0.247459    0.353242
H      1.974226    0.015858    2.934196
H     -0.514042   -0.907547    2.462833
H     -0.843652   -1.396113   -1.419016
H     -1.707504   -1.785651    0.064829
H     -2.479475    0.595922    0.256401
H     -1.549920    1.023753   -1.163769
H     -2.907184   -0.427626   -2.599396
H     -3.874944    0.783768   -1.787354
H     -5.040664   -1.356909   -1.848098
H     -3.692816   -2.192837   -1.108917
H     -4.062105   -0.977808    1.031704
H     -5.476428   -1.874051    0.507658
H     -6.180915    0.304981    1.332397
H     -5.089151    1.150213    0.230754
H     -6.476092    0.247527   -0.413209
C      3.404762    0.715975    0.433777
C      3.932075    0.995312   -0.813408
S      4.544180    1.076936    1.666372
C      5.728153    1.600036    0.549561
C      5.264382    1.502271   -0.747529
C      7.006628    2.060475    1.034514
H      3.400788    0.849159   -1.744775
H      5.854769    1.782186   -1.612517
O      7.410587    2.144343    2.185419
O      7.817325    2.434310    0.016469
H      1.300134    0.008754   -1.215388
H      8.630447    2.717371    0.483351
