38
Conformer 32, Energy = -8.3531 kcal/mol
N      1.092033    0.117048    0.508199
C      2.233360    0.051109   -0.259906
C      1.868675   -0.550048   -1.452248
C      0.485343   -0.846369   -1.394094
C      0.022489   -0.421559   -0.167131
C     -1.344850   -0.478365    0.430727
C     -2.141553    0.790058    0.117656
C     -3.511815    0.832649    0.800907
C     -4.470673   -0.307508    0.444851
C     -4.797222   -0.385150   -1.046688
C     -5.839787   -1.455685   -1.330935
H      2.526664   -0.757850   -2.286483
H     -0.107408   -1.318037   -2.167600
H     -1.268110   -0.613978    1.516559
H     -1.863133   -1.360094    0.036640
H     -1.571794    1.668260    0.449519
H     -2.258339    0.903400   -0.966965
H     -3.991294    1.788223    0.554168
H     -3.365383    0.834685    1.888296
H     -5.400479   -0.155278    1.007590
H     -4.060331   -1.264733    0.786457
H     -3.894590   -0.615283   -1.622763
H     -5.171580    0.583423   -1.397440
H     -6.775073   -1.243037   -0.803361
H     -5.484133   -2.442264   -1.017015
H     -6.056938   -1.497886   -2.402856
C      3.510961    0.543502    0.188661
C      3.811670    1.139733    1.399298
S      4.911726    0.440610   -0.798827
C      5.908799    1.182892    0.374866
C      5.186567    1.506540    1.506553
C      7.308786    1.385505    0.090847
H      3.090345    1.314166    2.186911
H      5.624849    1.985853    2.374471
O      7.941909    1.096141   -0.914251
O      7.943067    1.983506    1.126936
H      1.043470    0.509171    1.437529
H      8.863770    2.056249    0.800923
