38
Conformer 20, Energy = -8.9797 kcal/mol
N      0.474813    1.450712   -0.664929
C      1.705500    0.997528   -1.085053
C      1.586813    0.741856   -2.440133
C      0.260274    1.042877   -2.833014
C     -0.415725    1.475967   -1.712206
C     -1.830346    1.920928   -1.538720
C     -2.817385    0.751858   -1.477878
C     -2.675721   -0.088950   -0.203752
C     -3.743299   -1.184563   -0.144285
C     -3.579515   -2.125732    1.051094
C     -3.783278   -1.442721    2.394569
H      2.371608    0.373375   -3.088504
H     -0.155663    0.948928   -3.828146
H     -1.928871    2.541252   -0.639415
H     -2.097870    2.562831   -2.387547
H     -3.834735    1.160673   -1.520642
H     -2.696635    0.109306   -2.359061
H     -2.762831    0.566824    0.669714
H     -1.683199   -0.552170   -0.167884
H     -3.692967   -1.784392   -1.061513
H     -4.740665   -0.728872   -0.119073
H     -2.587709   -2.591965    1.025846
H     -4.312631   -2.935851    0.957700
H     -3.751050   -2.182962    3.200526
H     -4.753995   -0.938764    2.436322
H     -3.000458   -0.704763    2.592486
C      2.833389    0.855644   -0.199945
C      2.879593    1.102251    1.159686
S      4.363130    0.324360   -0.770269
C      5.080135    0.422834    0.778581
C      4.167839    0.854378    1.721231
C      6.469840    0.070564    0.940764
H      2.036002    1.445008    1.744457
H      4.413080    0.986417    2.768865
O      7.272100   -0.311268    0.100893
O      6.868574    0.206665    2.227575
H      0.251765    1.719952    0.282442
H      7.810097   -0.060417    2.189217
