38
Conformer 40, Energy = -7.9132 kcal/mol
N      1.057527    0.088552    0.664715
C      2.367108   -0.324112    0.772772
C      2.328461   -1.666844    1.105847
C      0.971726   -2.061690    1.196782
C      0.198971   -0.954882    0.917989
C     -1.284656   -0.789166    0.869725
C     -1.821018   -0.991720   -0.549526
C     -3.350858   -0.964116   -0.632747
C     -3.948998    0.412808   -0.332811
C     -5.477679    0.438821   -0.415727
C     -6.016204    0.213295   -1.820058
H      3.186930   -2.306327    1.267734
H      0.601564   -3.049745    1.439100
H     -1.546433    0.207888    1.241621
H     -1.749945   -1.513747    1.549247
H     -1.477449   -1.962729   -0.930006
H     -1.401981   -0.232415   -1.222070
H     -3.770271   -1.709836    0.053372
H     -3.632729   -1.271913   -1.645986
H     -3.530749    1.156713   -1.021452
H     -3.667104    0.723213    0.679365
H     -5.827069    1.416878   -0.063377
H     -5.901059   -0.311238    0.262403
H     -7.102588    0.348891   -1.831036
H     -5.807401   -0.800862   -2.171739
H     -5.579293    0.924281   -2.528171
C      3.487550    0.555853    0.558197
C      3.461678    1.876169    0.148547
S      5.103619    0.030108    0.802853
C      5.762335    1.546462    0.367305
C      4.765984    2.444490    0.038531
C      7.193464    1.729108    0.383424
H      2.556369    2.427004   -0.070953
H      4.963609    3.465025   -0.269461
O      8.070264    0.929047    0.676912
O      7.536819    2.984776    0.010714
H      0.765074    1.026611    0.431054
H      8.514431    2.964951    0.066911
