38
Conformer 21, Energy = -8.9572 kcal/mol
N      0.646964    1.498838   -0.685755
C      1.758098    0.710536   -0.887094
C      1.437893   -0.162960   -1.911898
C      0.111307    0.107555   -2.326081
C     -0.364085    1.139906   -1.545817
C     -1.688720    1.828946   -1.543412
C     -2.565602    1.436990   -0.350689
C     -3.043966   -0.018338   -0.409297
C     -3.976002   -0.340407    0.761709
C     -4.562778   -1.752239    0.698503
C     -3.521438   -2.850502    0.849088
H      2.088479   -0.922846   -2.325872
H     -0.437630   -0.401861   -3.107926
H     -1.521943    2.913309   -1.519615
H     -2.219228    1.617712   -2.479931
H     -2.026714    1.609780    0.589297
H     -3.441464    2.097779   -0.339389
H     -2.179390   -0.689648   -0.385670
H     -3.569301   -0.193936   -1.355707
H     -4.807317    0.375465    0.766205
H     -3.439430   -0.207372    1.709061
H     -5.298790   -1.858131    1.504463
H     -5.104181   -1.889693   -0.244698
H     -2.940581   -2.718503    1.767347
H     -2.830609   -2.867972    0.001161
H     -4.011596   -3.828309    0.896055
C      2.970555    0.852918   -0.121936
C      3.226099    1.745654    0.902399
S      4.339604   -0.141576   -0.412565
C      5.263685    0.610030    0.813753
C      4.540987    1.606821    1.439216
C      6.613138    0.162826    1.060058
H      2.513354    2.474390    1.265737
H      4.937641    2.210795    2.247297
O      7.246997   -0.721163    0.501859
O      7.193188    0.866032    2.061277
H      0.578386    2.235137    0.001928
H      8.084394    0.463634    2.116941
