38
Conformer 66, Energy = -5.9961 kcal/mol
N      1.085794   -0.577640    0.044704
C      2.084656   -0.034362    0.821673
C      1.894534   -0.523869    2.102273
C      0.759612   -1.370258    2.088813
C      0.268650   -1.384721    0.800588
C     -0.902199   -2.100234    0.212144
C     -2.238464   -1.426731    0.539530
C     -2.411021   -0.068503   -0.152645
C     -3.792795    0.551161    0.087362
C     -4.800390    0.318390   -1.042321
C     -5.174303   -1.137282   -1.260993
H      2.506582   -0.298238    2.966300
H      0.345056   -1.908136    2.931969
H     -0.787352   -2.193915   -0.874732
H     -0.917751   -3.122774    0.610101
H     -3.040928   -2.104460    0.231388
H     -2.338415   -1.297822    1.624751
H     -2.210063   -0.155412   -1.226799
H     -1.661092    0.622360    0.251799
H     -4.211308    0.211274    1.042121
H     -3.662466    1.637311    0.179179
H     -4.409167    0.735125   -1.978030
H     -5.713159    0.879732   -0.808351
H     -5.514843   -1.601912   -0.330519
H     -5.986158   -1.210092   -1.991998
H     -4.329208   -1.710603   -1.652834
C      3.085955    0.860426    0.299667
C      3.208160    1.333253   -0.993790
S      4.335228    1.491045    1.294302
C      5.032545    2.384294    0.014239
C      4.324364    2.207035   -1.157987
C      6.209477    3.180740    0.263597
H      2.535382    1.075804   -1.801353
H      4.594506    2.683546   -2.093438
O      6.831264    3.333488    1.305147
O      6.623847    3.817059   -0.857487
H      0.963394   -0.403367   -0.942418
H      7.412078    4.307885   -0.545954
