38
Conformer 46, Energy = -7.6356 kcal/mol
N      0.961217   -0.866571   -0.455004
C      1.970800   -0.014930   -0.844762
C      1.892618    0.079893   -2.223357
C      0.813533   -0.724855   -2.662113
C      0.243966   -1.298884   -1.545488
C     -0.916439   -2.228954   -1.412429
C     -2.266197   -1.513850   -1.519553
C     -2.559029   -0.599602   -0.324232
C     -3.955070    0.019090   -0.431800
C     -4.257429    1.029156    0.677225
C     -4.318977    0.408275    2.064155
H      2.542531    0.669194   -2.857696
H      0.486603   -0.865495   -3.684561
H     -0.852116   -2.978924   -2.210842
H     -0.858545   -2.780170   -0.465946
H     -2.312871   -0.932166   -2.448689
H     -3.052962   -2.276160   -1.582898
H     -2.477272   -1.181879    0.600291
H     -1.813895    0.202313   -0.273305
H     -4.045814    0.533160   -1.396728
H     -4.713160   -0.773360   -0.423619
H     -5.224504    1.499787    0.463354
H     -3.507654    1.828766    0.668607
H     -4.631205    1.158422    2.797699
H     -3.342606    0.027163    2.377081
H     -5.039077   -0.415297    2.094542
C      2.878457    0.604282    0.087220
C      2.895957    0.477884    1.463715
S      4.135339    1.648160   -0.439532
C      4.696992    1.933105    1.149310
C      3.937143    1.239931    2.071911
C      5.821202    2.794677    1.438395
H      2.199259   -0.128026    2.028196
H      4.123497    1.280707    3.139456
O      6.278169    3.056350    2.542883
O      6.386670    3.338394    0.337674
H      0.766153   -1.131293    0.499863
H      7.114719    3.881305    0.700974
