38
Conformer 48, Energy = -7.5458 kcal/mol
N      1.124850    0.926674   -0.443764
C      2.421439    0.560041   -0.728318
C      2.353357   -0.331628   -1.784864
C      0.991606   -0.502721   -2.133152
C      0.245324    0.287434   -1.285408
C     -1.229842    0.495638   -1.195026
C     -1.869186   -0.471005   -0.196249
C     -3.383461   -0.264553   -0.112501
C     -4.018394   -1.231417    0.889584
C     -5.517647   -1.000397    1.088884
C     -6.347273   -1.290369   -0.152476
H      3.195186   -0.817691   -2.261308
H      0.600380   -1.137458   -2.918018
H     -1.439648    1.531268   -0.900249
H     -1.675899    0.353815   -2.187225
H     -1.422982   -0.328764    0.796296
H     -1.656353   -1.506195   -0.492732
H     -3.820653   -0.413161   -1.106224
H     -3.597078    0.768601    0.187128
H     -3.522519   -1.115879    1.861417
H     -3.845461   -2.265655    0.567837
H     -5.864338   -1.652958    1.899137
H     -5.696405    0.031067    1.414213
H     -7.413621   -1.205598    0.080508
H     -6.127699   -0.581956   -0.956302
H     -6.161166   -2.303380   -0.522671
C      3.557798    1.069995   -0.004422
C      3.554595    1.899879    1.101054
S      5.165497    0.680236   -0.462974
C      5.853013    1.608222    0.797077
C      4.869475    2.207956    1.560195
C      7.280462    1.718871    0.997068
H      2.658464    2.277444    1.575889
H      5.088377    2.840441    2.413727
O      7.849982    2.357172    1.872099
O      8.011034    1.026128    0.094951
H      0.854598    1.575523    0.281403
H      8.934186    1.203981    0.365417
