38
Conformer  7, Energy = -10.3453 kcal/mol
N      1.099690    0.520547   -0.521556
C      2.325371    0.397508   -1.136306
C      2.075859    0.088113   -2.460662
C      0.671930    0.023743   -2.639033
C      0.085396    0.293914   -1.420345
C     -1.352316    0.360245   -1.021935
C     -1.830902   -0.972410   -0.440703
C     -3.331404   -0.995707   -0.131871
C     -3.734704   -0.022125    0.978699
C     -5.184913   -0.197735    1.436721
C     -6.205269    0.132008    0.358176
H      2.822034   -0.076677   -3.226586
H      0.146606   -0.198036   -3.559332
H     -1.485740    1.167295   -0.292323
H     -1.957716    0.621612   -1.898509
H     -1.616991   -1.778165   -1.155168
H     -1.264786   -1.210254    0.468970
H     -3.889669   -0.775526   -1.048933
H     -3.602432   -2.015310    0.168601
H     -3.587393    1.011827    0.646663
H     -3.080636   -0.174576    1.845972
H     -5.344025   -1.223898    1.787906
H     -5.359970    0.461317    2.295491
H     -6.150209   -0.574250   -0.475371
H     -7.217962    0.078943    0.770678
H     -6.051389    1.142710   -0.032778
C      3.575278    0.575743   -0.447158
C      4.843729    0.473886   -0.983926
S      3.648527    0.958649    1.223614
C      5.359389    0.988934    1.233009
C      5.868554    0.710844   -0.020682
C      6.055546    1.281295    2.462485
H      5.037264    0.239490   -2.023551
H      6.929835    0.678392   -0.238999
O      5.593723    1.526303    3.567834
O      7.397849    1.263752    2.289336
H      0.976423    0.743421    0.457302
H      7.735422    1.473777    3.184271
