38
Conformer 35, Energy = -8.3235 kcal/mol
N      1.121657   -0.331616    0.614947
C      2.040896    0.600413    1.042988
C      1.411459    1.350305    2.021501
C      0.093377    0.857340    2.178154
C     -0.065805   -0.186930    1.292612
C     -1.241614   -1.066633    1.025537
C     -2.096614   -0.523437   -0.122022
C     -3.308062   -1.421077   -0.381882
C     -4.137710   -0.989323   -1.595003
C     -4.737497    0.417052   -1.524154
C     -5.670864    0.621508   -0.341325
H      1.850014    2.172699    2.572333
H     -0.657744    1.228453    2.863872
H     -1.848983   -1.144294    1.935831
H     -0.897005   -2.081016    0.789103
H     -2.427697    0.492685    0.123209
H     -1.491424   -0.449492   -1.034424
H     -2.961657   -2.447439   -0.557525
H     -3.941151   -1.459741    0.512030
H     -3.512455   -1.054673   -2.494206
H     -4.950187   -1.713802   -1.732747
H     -3.942802    1.170534   -1.498276
H     -5.301491    0.596651   -2.447581
H     -6.461977   -0.134802   -0.329438
H     -6.144819    1.606435   -0.402933
H     -5.130505    0.573606    0.608654
C      3.375366    0.690277    0.507243
C      3.947102   -0.092486   -0.478637
S      4.493561    1.865097    1.070526
C      5.727049    1.336054    0.011604
C      5.295652    0.277430   -0.763183
C      7.008522    1.998812    0.027771
H      3.436335   -0.900422   -0.986011
H      5.919918   -0.211176   -1.502555
O      7.383649    2.936322    0.717085
O      7.860685    1.451684   -0.871043
H      1.291836   -1.024242   -0.099954
H      8.670984    1.988842   -0.752101
