38
Conformer 61, Energy = -6.6687 kcal/mol
N      0.692400   -0.036051   -0.830885
C      2.022288   -0.150166   -0.492331
C      2.322052   -1.500719   -0.532603
C      1.148081   -2.203975   -0.895718
C      0.144849   -1.274299   -1.069724
C     -1.288466   -1.447314   -1.450640
C     -2.152675   -1.958106   -0.294053
C     -2.289941   -1.001124    0.897057
C     -2.878192    0.377571    0.579081
C     -4.256256    0.371907   -0.086441
C     -5.334417   -0.291059    0.756483
H      3.286691   -1.944158   -0.320999
H      1.047297   -3.275499   -1.013121
H     -1.695329   -0.512807   -1.853149
H     -1.340369   -2.175504   -2.270289
H     -3.149794   -2.196749   -0.682474
H     -1.740521   -2.905938    0.076213
H     -1.307568   -0.858140    1.363564
H     -2.907802   -1.488622    1.660942
H     -2.941048    0.946693    1.515371
H     -2.183941    0.933303   -0.061446
H     -4.206234   -0.114811   -1.066424
H     -4.551848    1.411480   -0.273257
H     -6.310471   -0.178947    0.273534
H     -5.146657   -1.361771    0.878673
H     -5.393544    0.166106    1.749241
C      2.851282    0.985050   -0.176840
C      2.476889    2.313911   -0.107690
S      4.521629    0.808870    0.176803
C      4.746921    2.485804    0.418497
C      3.563024    3.173438    0.233043
C      6.026158    3.060152    0.769811
H      1.472245    2.673347   -0.288383
H      3.483138    4.249757    0.339120
O      6.270106    4.244102    0.959415
O      7.017261    2.148646    0.887125
H      0.185614    0.835314   -0.890684
H      7.797148    2.689907    1.123178
