38
Conformer 16, Energy = -9.0827 kcal/mol
N      0.525733    0.470127   -1.318668
C      1.527333    1.388448   -1.100501
C      1.177981    2.529772   -1.798197
C     -0.063242    2.289767   -2.437709
C     -0.454148    1.005840   -2.119024
C     -1.670020    0.230794   -2.504646
C     -2.898208    0.593311   -1.664147
C     -2.790234    0.293758   -0.162625
C     -2.618448   -1.194450    0.152553
C     -2.490998   -1.483512    1.650724
C     -3.754017   -1.177880    2.440736
H      1.749883    3.447071   -1.844036
H     -0.614779    2.983360   -3.059689
H     -1.895915    0.443642   -3.557507
H     -1.471059   -0.845551   -2.454385
H     -3.114351    1.662869   -1.784328
H     -3.765687    0.056657   -2.068503
H     -1.965765    0.865753    0.278071
H     -3.708061    0.661696    0.310502
H     -3.461806   -1.760163   -0.261350
H     -1.713232   -1.573860   -0.333560
H     -2.250807   -2.545852    1.778689
H     -1.651390   -0.916797    2.069909
H     -3.634031   -1.501830    3.479616
H     -3.971200   -0.105964    2.452735
H     -4.617649   -1.702562    2.020224
C      2.680272    1.117648   -0.284542
C      3.739118    1.966887   -0.031408
S      2.892387   -0.380026    0.524574
C      4.386124    0.096138    1.209043
C      4.717549    1.381645    0.824540
C      5.161226   -0.768557    2.069879
H      3.816267    2.967319   -0.439366
H      5.625699    1.879518    1.146106
O      6.233320   -0.508469    2.598715
O      4.593228   -1.978019    2.276642
H      0.517100   -0.461638   -0.925595
H      5.231825   -2.427290    2.866528
