38
Conformer 34, Energy = -8.3258 kcal/mol
N      0.760247   -0.340957    0.681481
C      1.967740   -0.212790    1.329996
C      1.794932   -0.737214    2.597912
C      0.455128   -1.183417    2.708532
C     -0.169620   -0.925621    1.506504
C     -1.570564   -1.181745    1.058528
C     -2.462526    0.040546    1.294899
C     -3.904287   -0.174273    0.822064
C     -4.214157    0.404546   -0.562855
C     -3.423116   -0.235593   -1.701989
C     -3.895600    0.268913   -3.057566
H      2.550522   -0.796239    3.370326
H     -0.003484   -1.643068    3.574712
H     -1.566781   -1.466078    0.001393
H     -1.972443   -2.041242    1.609720
H     -2.482468    0.244228    2.374534
H     -2.033450    0.934784    0.826059
H     -4.170515   -1.237700    0.852814
H     -4.570408    0.329260    1.534950
H     -5.287137    0.271958   -0.751418
H     -4.031645    1.486528   -0.553883
H     -3.531084   -1.325561   -1.667381
H     -2.357696   -0.003488   -1.598403
H     -4.950449    0.025551   -3.221131
H     -3.311940   -0.194890   -3.858976
H     -3.777086    1.354270   -3.135774
C      3.133243    0.368810    0.719860
C      4.371374    0.556755    1.302392
S      3.128783    0.932175   -0.900781
C      4.767660    1.418791   -0.829743
C      5.310121    1.159471    0.414321
C      5.381689    2.010116   -1.993797
H      4.602696    0.275389    2.322939
H      6.336225    1.390114    0.676934
O      4.889799    2.239800   -3.089522
O      6.678160    2.325111   -1.765407
H      0.592775   -0.039909   -0.269728
H      6.965360    2.702269   -2.622519
