38
Conformer  9, Energy = -10.0246 kcal/mol
N      1.053992    0.740158   -0.294396
C      2.203434    0.057884   -0.624210
C      1.825803   -0.972995   -1.464818
C      0.421558   -0.904979   -1.638738
C     -0.037106    0.166223   -0.900836
C     -1.418321    0.702211   -0.714274
C     -2.101632    0.067114    0.498877
C     -3.483964    0.656352    0.794959
C     -4.521336    0.511489   -0.323335
C     -4.785833   -0.918626   -0.799613
C     -5.305605   -1.836225    0.295964
H      2.486812   -1.704096   -1.911055
H     -0.188897   -1.568919   -2.237622
H     -1.378829    1.791834   -0.593793
H     -1.996898    0.504750   -1.623967
H     -2.175806   -1.018683    0.363802
H     -1.473927    0.215459    1.387649
H     -3.371547    1.723944    1.022909
H     -3.871257    0.194055    1.710786
H     -5.465586    0.947595    0.026915
H     -4.214662    1.116258   -1.184944
H     -3.879740   -1.349467   -1.239240
H     -5.530731   -0.880931   -1.603776
H     -6.203453   -1.420153    0.763735
H     -5.564659   -2.813383   -0.124197
H     -4.553577   -1.999020    1.073513
C      3.506066    0.424133   -0.136357
C      4.705778   -0.199943   -0.416889
S      3.743599    1.758559    0.915461
C      5.434260    1.507509    0.997281
C      5.813184    0.420887    0.233091
C      6.243374    2.392416    1.799774
H      4.794137   -1.066477   -1.060727
H      6.839768    0.084621    0.143186
O      5.896547    3.352439    2.472955
O      7.551971    2.050024    1.750703
H      1.029230    1.547864    0.313896
H      7.973854    2.719718    2.327332
