38
Conformer  3, Energy = -10.8502 kcal/mol
N      0.541550    0.450670   -1.028913
C      1.811611   -0.013821   -1.285434
C      1.751711   -0.687610   -2.491162
C      0.416230   -0.628702   -2.960012
C     -0.320390    0.077362   -2.031525
C     -1.768252    0.440424   -2.005943
C     -2.667322   -0.732538   -1.604894
C     -2.473556   -1.253437   -0.174845
C     -2.672648   -0.226155    0.943785
C     -4.071722    0.389840    0.962713
C     -4.253807    1.314521    2.156720
H      2.579091   -1.176178   -2.988450
H      0.032994   -1.060296   -3.875969
H     -2.057451    0.770914   -3.011882
H     -1.938492    1.299792   -1.347575
H     -3.713327   -0.433169   -1.740964
H     -2.503215   -1.569010   -2.296864
H     -1.469768   -1.684251   -0.077166
H     -3.172970   -2.084315   -0.016873
H     -2.491275   -0.730633    1.901388
H     -1.919684    0.566105    0.869247
H     -4.247701    0.963662    0.046623
H     -4.827757   -0.402666    1.003143
H     -5.258940    1.747662    2.150662
H     -4.124267    0.770799    3.097944
H     -3.529773    2.135192    2.130848
C      2.925980    0.211186   -0.404455
C      4.229980   -0.204876   -0.588232
S      2.762054    1.072815    1.070125
C      4.418069    0.893784    1.462091
C      5.087396    0.186444    0.482273
C      4.919723    1.458883    2.691208
H      4.563390   -0.766963   -1.452012
H      6.146110   -0.041348    0.529918
O      4.317127    2.084109    3.552065
O      6.244269    1.224191    2.841397
H      0.289466    0.983509   -0.207100
H      6.445566    1.653704    3.698121
