38
Conformer 13, Energy = -9.4790 kcal/mol
N      1.232255   -0.528752   -0.686491
C      2.137910    0.375228   -1.193983
C      1.723477    0.673417   -2.478837
C      0.543361   -0.064926   -2.741093
C      0.252482   -0.800387   -1.610760
C     -0.865332   -1.747593   -1.323559
C     -2.189610   -1.035269   -1.029913
C     -2.186815   -0.295925    0.313054
C     -3.496426    0.445319    0.600762
C     -4.690881   -0.485899    0.811377
C     -5.935727    0.291687    1.211340
H      2.213788    1.352587   -3.163629
H     -0.034088   -0.056934   -3.656859
H     -0.603158   -2.408934   -0.488594
H     -1.001625   -2.394644   -2.199351
H     -2.428948   -0.332810   -1.837859
H     -2.979468   -1.794894   -1.023491
H     -1.377939    0.443841    0.322810
H     -1.978612   -1.003119    1.125063
H     -3.710477    1.144848   -0.216491
H     -3.353041    1.051132    1.504318
H     -4.459215   -1.219170    1.592372
H     -4.907373   -1.042794   -0.106252
H     -5.776044    0.833420    2.149081
H     -6.779426   -0.390919    1.353426
H     -6.210847    1.015961    0.437976
C      3.270698    0.858758   -0.451158
C      4.228017    1.755182   -0.883140
S      3.589989    0.353187    1.156573
C      4.995355    1.320758    1.279985
C      5.217042    2.020307    0.108820
C      5.809599    1.366046    2.473503
H      4.226197    2.206337   -1.867872
H      6.055550    2.694293   -0.027815
O      6.824619    2.027081    2.645186
O      5.353649    0.575405    3.471079
H      1.286596   -0.923164    0.243196
H      6.004469    0.720938    4.187228
