38
Conformer 27, Energy = -8.6172 kcal/mol
N      1.185849    0.875301   -0.348431
C      2.316720    0.816814   -1.131384
C      1.894892    0.533465   -2.417330
C      0.482976    0.419102   -2.400517
C      0.064040    0.633546   -1.104018
C     -1.305482    0.632661   -0.508175
C     -1.685982   -0.757114    0.008256
C     -3.030662   -0.788337    0.742469
C     -4.227298   -0.513179   -0.172021
C     -5.570717   -0.553337    0.561485
C     -5.944010   -1.935419    1.074992
H      2.531607    0.418507   -3.284513
H     -0.158181    0.201641   -3.245358
H     -2.019223    0.964885   -1.270441
H     -1.352158    1.362120    0.309785
H     -1.703031   -1.474479   -0.822199
H     -0.912054   -1.109421    0.702900
H     -3.136933   -1.780375    1.195662
H     -3.017276   -0.063518    1.565327
H     -4.125090    0.480997   -0.621093
H     -4.237342   -1.235178   -0.997432
H     -5.562091    0.156955    1.396379
H     -6.352676   -0.218710   -0.130790
H     -6.955082   -1.918933    1.494629
H     -5.264712   -2.268130    1.864987
H     -5.925044   -2.673589    0.267062
C      3.643995    1.025236   -0.617688
C      4.827008    0.987274   -1.328841
S      3.938240    1.366001    1.037500
C      5.631220    1.463221    0.812021
C      5.966538    1.238322   -0.509761
C      6.547824    1.745910    1.893433
H      4.881365    0.788461   -2.392215
H      6.988755    1.253876   -0.871492
O      7.765910    1.832738    1.819708
O      5.939023    1.923769    3.087539
H      1.193741    1.066797    0.644606
H      6.685340    2.101715    3.694961
