38
Conformer  6, Energy = -10.3705 kcal/mol
N      0.923495    1.275501   -0.402822
C      1.872048    0.355583   -0.788987
C      1.291528   -0.424351   -1.772009
C     -0.031906    0.038367   -1.974026
C     -0.241457    1.091334   -1.107922
C     -1.442848    1.949561   -0.888775
C     -2.180928    1.628049    0.414331
C     -2.760451    0.210762    0.518585
C     -3.827410   -0.090976   -0.536888
C     -4.405523   -1.504335   -0.424743
C     -5.211615   -1.734798    0.844154
H      1.764812   -1.244748   -2.294984
H     -0.755756   -0.358750   -2.674364
H     -1.124343    2.999673   -0.860150
H     -2.122125    1.866745   -1.744486
H     -2.996340    2.351801    0.538207
H     -1.501658    1.782574    1.262674
H     -3.198101    0.109988    1.518453
H     -1.956113   -0.531239    0.457265
H     -3.393892    0.009094   -1.537978
H     -4.637540    0.644749   -0.466214
H     -3.598466   -2.243778   -0.484658
H     -5.059950   -1.679555   -1.287117
H     -5.682094   -2.722944    0.815106
H     -6.003157   -0.986124    0.948754
H     -4.578543   -1.697326    1.735262
C      3.191438    0.296099   -0.219313
C      4.201303   -0.586632   -0.548565
S      3.702507    1.376654    1.011384
C      5.259819    0.673850    1.105732
C      5.388954   -0.370835    0.211146
C      6.219606    1.202864    2.044172
H      4.100521   -1.358213   -1.302039
H      6.295323   -0.955886    0.105113
O      6.094051    2.129337    2.832201
O      7.393359    0.531334    1.985709
H      1.073195    1.979661    0.307633
H      7.938257    0.986507    2.660157
