38
Conformer 49, Energy = -7.5369 kcal/mol
N      1.130162    0.008838   -0.259832
C      2.400304    0.263922   -0.727303
C      2.396614   -0.066998   -2.071363
C      1.100932   -0.526057   -2.411120
C      0.329369   -0.468711   -1.270327
C     -1.102762   -0.826613   -1.043034
C     -2.009806    0.399720   -1.170173
C     -3.501106    0.065259   -1.073472
C     -3.918979   -0.454998    0.303590
C     -5.432179   -0.662789    0.380628
C     -5.854282   -1.183298    1.745401
H      3.238470    0.011711   -2.747412
H      0.769117   -0.860582   -3.385840
H     -1.205855   -1.279580   -0.050316
H     -1.404147   -1.588439   -1.772408
H     -1.831216    0.883936   -2.139254
H     -1.749035    1.140693   -0.403691
H     -4.070132    0.975609   -1.299812
H     -3.763850   -0.670338   -1.843433
H     -3.606623    0.257525    1.076542
H     -3.416417   -1.405403    0.514989
H     -5.749784   -1.374804   -0.390018
H     -5.949111    0.283198    0.181673
H     -5.578759   -0.478509    2.536406
H     -6.939193   -1.323948    1.778447
H     -5.380196   -2.145925    1.962025
C      3.456009    0.776303    0.108653
C      3.394301    1.092166    1.452995
S      5.028446    1.076942   -0.510709
C      5.623430    1.622637    0.995738
C      4.635943    1.576904    1.960919
C      6.987181    2.063449    1.184458
H      2.506412    0.987181    2.062697
H      4.801411    1.879901    2.988981
O      7.489164    2.466659    2.224956
O      7.738327    2.002032    0.062449
H      0.825062    0.154453    0.691782
H      8.612776    2.327550    0.356186
