38
Conformer 55, Energy = -7.1605 kcal/mol
N      1.023249   -0.327539   -1.003586
C      1.805412   -0.041048    0.093129
C      1.228147   -0.695420    1.167518
C      0.080172   -1.381581    0.703203
C     -0.032316   -1.133860   -0.648340
C     -1.045891   -1.596283   -1.642091
C     -2.035756   -0.498451   -2.044106
C     -2.910065    0.049622   -0.908373
C     -3.810273   -1.010813   -0.269277
C     -4.807156   -0.427569    0.735453
C     -4.144191    0.171241    1.966580
H      1.590658   -0.684642    2.187518
H     -0.593973   -1.987069    1.295692
H     -0.523349   -1.943609   -2.542743
H     -1.581121   -2.468806   -1.250765
H     -2.688650   -0.892545   -2.833034
H     -1.487031    0.341060   -2.490098
H     -3.538347    0.848936   -1.321044
H     -2.274508    0.517068   -0.148762
H     -3.203786   -1.772597    0.232923
H     -4.376054   -1.522818   -1.057248
H     -5.428220    0.333018    0.248275
H     -5.482689   -1.228569    1.058771
H     -4.905617    0.481567    2.689371
H     -3.490519   -0.558195    2.455249
H     -3.549776    1.053840    1.713146
C      2.979284    0.791410    0.023851
C      3.505001    1.423723   -1.087281
S      3.932063    1.120590    1.413224
C      5.035326    2.095787    0.545487
C      4.682767    2.170768   -0.788259
C      6.171404    2.735930    1.169417
H      3.077753    1.365270   -2.079827
H      5.249417    2.739766   -1.517126
O      7.003872    3.446087    0.621810
O      6.274100    2.489404    2.494398
H      1.194414    0.011634   -1.939262
H      7.076251    2.984291    2.756209
