19
Conformer  0, Energy = 18.5911 kcal/mol
C     -3.094244   -0.597689    0.089649
C     -3.082026    0.746199    0.493600
C     -1.878149    1.453798    0.584837
C     -0.694679    0.803049    0.268815
C     -0.719144   -0.529264   -0.129978
C     -1.902142   -1.249450   -0.227525
C      0.621726   -1.046877   -0.421809
S      0.932507    1.500153    0.312083
C      1.651868    0.009263   -0.199955
O      0.848836   -2.185455   -0.793305
C      2.916775   -0.327831   -0.452630
N      4.018791    0.575203   -0.292451
O      3.953052    1.474354    0.551243
O      5.002181    0.341822   -1.005401
H     -4.039335   -1.133246    0.024047
H     -4.019225    1.242767    0.738481
H     -1.877901    2.494051    0.898586
H     -1.898299   -2.289395   -0.541316
H      3.259408   -1.281451   -0.827934
