37
Conformer  0, Energy = -30.4295 kcal/mol
C     -2.343007   -2.247752   -0.946699
C     -1.686279   -1.110419   -0.161559
C     -1.888977   -1.283241    1.345106
C     -0.178043   -0.999587   -0.497301
C      0.806235   -2.058380   -0.219572
C      2.051149   -1.860403    0.242958
C      2.705230   -0.591685    0.642686
C      2.971140    0.475432   -0.264807
O      2.622674    0.489867   -1.498089
C      3.642221    1.580505    0.301531
C      4.025226    1.651080    1.646430
C      3.749808    0.595359    2.498674
C      3.096549   -0.524220    1.997285
N      0.066992    0.132048   -1.053940
C     -1.107098    0.945676   -1.155972
C     -2.185640    0.236482   -0.634197
C     -3.445638    0.805933   -0.616163
C     -3.585328    2.099560   -1.133786
C     -2.478922    2.800260   -1.655005
C     -1.209919    2.218870   -1.669763
H     -1.963565   -3.224193   -0.626119
H     -3.430320   -2.253351   -0.809282
H     -2.145725   -2.159954   -2.021859
H     -1.481499   -2.239214    1.692813
H     -1.384872   -0.491007    1.911733
H     -2.951487   -1.256118    1.612122
H      0.472662   -3.076924   -0.390593
H      2.689792   -2.728632    0.400073
H      3.885920    2.426561   -0.343311
H      4.545853    2.531768    2.009565
H      4.052208    0.636840    3.539792
H      2.897194   -1.356450    2.667314
H      1.021069    0.423800   -1.352808
H     -4.305377    0.278242   -0.214140
H     -4.564574    2.576754   -1.132327
H     -2.616844    3.806503   -2.047292
H     -0.348808    2.749994   -2.063498
