37
Conformer  1, Energy = -30.4295 kcal/mol
C     -1.237960   -2.104646   -1.030614
C     -1.724539   -1.062145   -0.021939
C     -2.839303   -1.621561    0.864411
C     -0.542358   -0.539920    0.832176
C      0.277650   -1.391448    1.709368
C      1.609655   -1.303357    1.854080
C      2.566132   -0.416181    1.150289
C      2.551551    1.004840    1.266379
O      1.683395    1.674985    1.929577
C      3.573368    1.667377    0.552790
C      4.536411    1.006100   -0.219018
C      4.519142   -0.375333   -0.308818
C      3.540401   -1.084242    0.377557
N     -0.403997    0.726308    0.664816
C     -1.348238    1.249930   -0.275991
C     -2.164310    0.209569   -0.712037
C     -3.167308    0.454756   -1.631859
C     -3.321712    1.766948   -2.095787
C     -2.482372    2.804612   -1.642418
C     -1.471891    2.549408   -0.713763
H     -0.873825   -3.005929   -0.524730
H     -0.411617   -1.718988   -1.639916
H     -2.040096   -2.406045   -1.713766
H     -2.515372   -2.527962    1.387566
H     -3.146143   -0.897700    1.628919
H     -3.727771   -1.878048    0.276191
H     -0.254007   -2.160064    2.261203
H      2.102373   -1.987468    2.543712
H      3.624800    2.756024    0.609582
H      5.297875    1.582917   -0.734756
H      5.267734   -0.896828   -0.895970
H      3.541487   -2.169375    0.316127
H      0.339304    1.284001    1.135119
H     -3.818232   -0.336403   -1.991854
H     -4.101492    1.992468   -2.822233
H     -2.623315    3.814666   -2.023682
H     -0.815420    3.338733   -0.360713
