37
Conformer  3, Energy = -13.0617 kcal/mol
C     -2.337433   -1.674046    0.919964
C     -1.791828   -1.069858   -0.374507
C     -1.788979   -2.093163   -1.510812
C     -0.381366   -0.500456   -0.153408
C      0.814095   -1.260855    0.230751
C      1.368979   -0.774571    1.354981
C      2.762935   -0.302851    1.236492
C      2.996752    0.963443    0.601020
O      2.080366    1.728707    0.123405
C      4.356456    1.322710    0.532142
C      5.394636    0.523189    1.034374
C      5.112754   -0.694405    1.640001
C      3.792382   -1.111976    1.743186
N     -0.351912    0.768915   -0.378723
C     -1.646003    1.259193   -0.749070
C     -2.540253    0.187916   -0.760726
C     -3.866668    0.396795   -1.090139
C     -4.263456    1.702509   -1.403930
C     -3.343100    2.770309   -1.384851
C     -2.004849    2.553313   -1.051528
H     -2.300327   -0.954516    1.746815
H     -3.379940   -1.991657    0.804900
H     -1.752727   -2.548982    1.225779
H     -2.804343   -2.430627   -1.747705
H     -1.195733   -2.976008   -1.247056
H     -1.357085   -1.674940   -2.428035
H      1.434333   -1.611572   -0.591699
H      0.808533   -0.241078    2.120254
H      4.621116    2.273156    0.067061
H      6.420777    0.867511    0.947521
H      5.916441   -1.309809    2.030531
H      3.564129   -2.060746    2.218342
H      0.520733    1.336928   -0.265125
H     -4.586126   -0.416574   -1.107463
H     -5.302002    1.900158   -1.667197
H     -3.682404    3.774928   -1.632675
H     -1.288884    3.369011   -1.032869
