43
Conformer  1, Energy = 95.2068 kcal/mol
C     -0.078814    2.641367    0.922334
N     -0.994558    1.509740    0.963126
C     -2.201758    1.650195    0.245483
C     -2.693580    0.434421   -0.226088
C     -3.874832    0.404367   -0.934815
N     -4.590610    1.519487   -1.190688
C     -4.098982    2.688843   -0.710393
C     -2.920581    2.807451    0.012898
C     -1.781284   -0.689008    0.191305
C     -1.535642   -1.696937   -0.939304
C     -2.441261   -1.416005    1.380747
C     -0.488033    0.164616    0.579370
O      0.343764    0.319135   -0.598317
C      1.573917   -0.268433   -0.646747
C      2.179116   -0.863261    0.464282
C      1.494435   -0.859248    1.745414
C      0.252589   -0.368972    1.785107
C      3.458235   -1.429894    0.351691
C      4.137341   -1.395957   -0.877083
C      3.554526   -0.797915   -1.996755
C      2.278048   -0.244510   -1.854845
N      1.680561    0.376826   -3.014112
O      2.109828    1.494182   -3.327893
O      0.831432   -0.281631   -3.626970
N      5.476170   -1.990391   -0.983726
O      5.967853   -2.484930    0.039238
O      6.027894   -1.960608   -2.091439
H      0.858549    2.398373    1.433849
H     -0.505238    3.504407    1.444820
H      0.162309    2.935417   -0.105685
H     -4.297399   -0.518078   -1.317934
H     -4.705907    3.563291   -0.928726
H     -2.599662    3.773936    0.376336
H     -0.758433   -2.416149   -0.659346
H     -1.232625   -1.207146   -1.870667
H     -2.443359   -2.267604   -1.168748
H     -1.807845   -2.230383    1.749453
H     -2.646591   -0.737305    2.217058
H     -3.401269   -1.860341    1.090174
H      1.990610   -1.228219    2.636610
H     -0.269391   -0.328392    2.737497
H      3.921804   -1.888998    1.224742
H      4.068672   -0.755739   -2.955383
