43
Conformer  4, Energy = 102.9105 kcal/mol
C     -0.389022    1.271022    2.223453
N     -0.545499    0.991540    0.801968
C     -1.734099    1.545185    0.260451
C     -2.587080    0.601795   -0.304498
C     -3.768822    1.016744   -0.877783
N     -4.137305    2.315456   -0.912322
C     -3.284073    3.214418   -0.359372
C     -2.079338    2.883175    0.241605
C     -2.042114   -0.784249   -0.090714
C     -2.839737   -1.433843    1.057387
C     -2.165137   -1.664152   -1.343921
C     -0.535540   -0.409165    0.278920
O      0.191877   -0.361754   -0.983690
C      1.553156   -0.441102   -0.943085
C      2.216028   -1.096676    0.100239
C      1.432124   -1.697490    1.169091
C      0.139194   -1.359259    1.250591
C      3.614262   -1.185297    0.099484
C      4.349977   -0.608245   -0.948269
C      3.703137    0.042299   -2.003746
C      2.304611    0.102239   -1.987587
N      1.638000    0.755579   -3.096529
O      1.956132    1.931313   -3.321467
O      0.859413    0.073361   -3.775502
N      5.815804   -0.697756   -0.938597
O      6.352271   -1.225911    0.044699
O      6.423806   -0.242355   -1.916042
H     -0.405607    2.348352    2.423492
H     -1.174562    0.797044    2.822377
H      0.583499    0.916388    2.580327
H     -4.474523    0.321042   -1.318727
H     -3.607922    4.249755   -0.420574
H     -1.431601    3.649031    0.646714
H     -2.768661   -0.859749    1.987899
H     -3.906023   -1.504754    0.809092
H     -2.491122   -2.453016    1.257057
H     -1.619999   -2.605287   -1.212725
H     -1.779065   -1.167185   -2.241081
H     -3.211854   -1.914894   -1.553193
H      1.903052   -2.355920    1.890416
H     -0.441381   -1.749419    2.078964
H      4.122125   -1.697504    0.915741
H      4.261620    0.489243   -2.824671
