29
Conformer  3, Energy = 86.2914 kcal/mol
C      4.733596    1.149340    1.378357
C      5.431592    0.334076    0.475604
C      4.741362   -0.468308   -0.439843
C      3.353152   -0.445285   -0.440650
C      2.671191    0.365032    0.457597
C      3.338583    1.169366    1.373929
C      1.212739    0.268777    0.320938
O      0.460512    0.918234    1.023756
C      0.852612   -0.700798   -0.763922
C     -0.368134   -1.053652   -1.193506
C     -1.678653   -0.611577   -0.702027
C     -2.064640   -0.763963    0.632475
C     -3.359773   -0.420589    1.039311
C     -4.302274    0.070504    0.122260
C     -3.904942    0.219113   -1.214971
C     -2.611757   -0.122647   -1.624295
C     -5.712525    0.420831    0.559416
O     -6.007065    0.230655    1.782000
O     -6.500244    0.871234   -0.332516
S      2.293148   -1.374457   -1.507327
H      5.280467    1.769311    2.085176
H      6.519310    0.326311    0.487614
H      5.287626   -1.097152   -1.136684
H      2.781820    1.795586    2.065933
H     -0.451868   -1.754606   -2.022951
H     -1.372695   -1.151053    1.374411
H     -3.649528   -0.538965    2.082365
H     -4.623127    0.599108   -1.939979
H     -2.350483   -0.004427   -2.671946
