29
Conformer  1, Energy = 80.8748 kcal/mol
C      5.381657    0.464759    0.399413
C      5.164172   -0.627027   -0.454609
C      3.864198   -1.039658   -0.768045
C      2.791417   -0.350919   -0.219888
C      3.018455    0.729810    0.625358
C      4.300773    1.155300    0.948852
C      1.773043    1.336673    1.110058
O      1.743002    2.297995    1.860344
C      0.593330    0.607916    0.552159
C     -0.654242    0.997079    0.847824
C     -1.890921    0.377760    0.360157
C     -2.741660    1.109084   -0.474228
C     -3.935034    0.543602   -0.934867
C     -4.307580   -0.759209   -0.567500
C     -3.449053   -1.479453    0.278191
C     -2.254777   -0.917740    0.741100
C     -5.603001   -1.370530   -1.068171
O     -5.870434   -2.554232   -0.687695
O     -6.325387   -0.653379   -1.830616
S      1.077068   -0.702792   -0.482672
H      6.397645    0.774205    0.633861
H      6.014038   -1.158260   -0.877858
H      3.700903   -1.885339   -1.430193
H      4.452005    2.002484    1.611304
H     -0.811487    1.860468    1.491745
H     -2.488744    2.120154   -0.780061
H     -4.591813    1.115905   -1.588534
H     -3.725850   -2.490079    0.575034
H     -1.621722   -1.504576    1.400063
