49
Conformer 97, Energy = 19.0818 kcal/mol
C     -1.174888    0.181708   -2.506794
N     -0.115009    0.224446   -1.497222
C     -0.134795    0.661567   -0.273884
C     -1.296829    1.157938    0.470052
C     -2.444767    0.465743    0.511650
C     -3.492575    0.836945    1.483660
C     -3.208926    0.887259    2.880599
O     -2.066733    0.628009    3.392804
C     -4.300722    1.242628    3.702193
C     -5.580926    1.519240    3.211006
C     -5.808159    1.441796    1.841032
C     -4.773200    1.098702    0.969919
N     -7.141431    1.721727    1.303860
O     -8.048852    1.996450    2.102904
O     -7.290271    1.670090    0.072066
C      1.274225    0.591126    0.373757
C      1.790758    1.990322    0.720337
C      1.273384   -0.321515    1.602289
C      2.076571   -0.016554   -0.746837
C      1.240036   -0.232237   -1.834837
C      1.691345   -0.804473   -3.010819
C      3.040522   -1.168754   -3.076056
C      3.899966   -0.959633   -1.978442
C      5.298566   -1.375179   -2.069635
C      5.838764   -2.496392   -1.565537
C      5.211830   -3.597990   -0.817630
O      3.880662   -3.523745   -0.696870
O      5.838047   -4.530938   -0.343611
C      3.415995   -0.370597   -0.802280
H     -2.022461    0.794424   -2.191176
H     -0.792560    0.591949   -3.445426
H     -1.489072   -0.856812   -2.637985
H     -1.138216    1.987380    1.157734
H     -2.634885   -0.446176   -0.041348
H     -4.136236    1.297058    4.780217
H     -6.366726    1.782478    3.913128
H     -4.947208    1.036217   -0.100344
H      1.198388    2.448414    1.520170
H      2.833350    1.960963    1.057577
H      1.741562    2.661976   -0.145445
H      2.289059   -0.494147    1.976229
H      0.694024    0.115976    2.420989
H      0.832847   -1.300010    1.376325
H      1.045614   -0.989087   -3.861909
H      3.424876   -1.636093   -3.982186
H      5.943258   -0.679390   -2.604391
H      6.905224   -2.658217   -1.704277
H      3.656933   -4.317669   -0.165741
H      4.069637   -0.216926    0.053099
