49
Conformer 95, Energy = 19.0456 kcal/mol
C     -1.016200    0.316766   -2.408915
N     -0.123593   -0.032415   -1.301013
C     -0.223026    0.209440   -0.027837
C     -1.352713    0.825629    0.679076
C     -2.620670    0.469732    0.426658
C     -3.685689    0.866185    1.367069
C     -3.650651    0.420668    2.720877
O     -2.733240   -0.325427    3.207028
C     -4.726826    0.857267    3.522707
C     -5.768092    1.661791    3.047305
C     -5.758889    2.059751    1.714346
C     -4.724412    1.665519    0.864989
N     -6.839976    2.899837    1.194532
O     -6.787374    3.235057   -0.000111
O     -7.747189    3.233566    1.971038
C      1.044536   -0.264040    0.735313
C      0.697762   -1.316682    1.790205
C      1.784839    0.923689    1.357669
C      1.848816   -0.867969   -0.385343
C      1.142641   -0.727408   -1.573175
C      1.626674   -1.201978   -2.779312
C      2.878075   -1.827247   -2.772718
C      3.610445   -1.966300   -1.576121
C      4.921331   -2.612156   -1.594376
C      6.101885   -2.029355   -1.856310
C      6.415585   -0.629615   -2.181029
O      5.377753    0.215768   -2.154175
O      7.536922   -0.236546   -2.452365
C      3.089562   -1.487005   -0.367211
H     -1.532885   -0.588328   -2.738465
H     -1.738559    1.070591   -2.088413
H     -0.426623    0.743017   -3.225845
H     -1.127446    1.408765    1.570555
H     -2.931066   -0.221742   -0.346246
H     -4.748614    0.544908    4.568608
H     -6.560450    1.952317    3.730935
H     -4.711955    1.973546   -0.176036
H      0.091832   -2.126441    1.366501
H      1.599067   -1.767649    2.220820
H      0.127281   -0.877827    2.614629
H      1.987495    1.704390    0.614642
H      2.746093    0.617556    1.786104
H      1.198422    1.384401    2.160038
H      1.081414   -1.107599   -3.711556
H      3.292740   -2.204407   -3.706912
H      4.902648   -3.676547   -1.366177
H      6.994468   -2.650831   -1.836738
H      5.790402    1.077437   -2.372618
H      3.647451   -1.592078    0.560289
