49
Conformer 48, Energy = 6.0528 kcal/mol
C     -0.512054    2.094713   -1.760063
N      0.129932    1.060335   -0.938931
C     -0.199359    0.613625    0.235338
C     -1.361134    1.071719    0.996462
C     -2.471750    0.332851    0.872257
C     -3.773145    0.990490    1.063488
C     -4.266316    1.843294    0.030091
O     -3.649510    2.071906   -1.067787
C     -5.517859    2.434888    0.297766
C     -6.237252    2.215841    1.478740
C     -5.706408    1.372470    2.451851
C     -4.472848    0.752678    2.254581
N     -6.445493    1.135814    3.694076
O     -5.921806    0.403123    4.548355
O     -7.550746    1.681823    3.828967
C      0.808566   -0.440646    0.747664
C      1.519228    0.072518    2.003216
C      0.143812   -1.794150    1.007254
C      1.757263   -0.519841   -0.421989
C      1.327679    0.359658   -1.410714
C      1.981670    0.477046   -2.621635
C      3.118872   -0.314975   -2.822356
C      3.587885   -1.196179   -1.822951
C      4.771223   -2.016962   -2.114397
C      5.704208   -2.336547   -1.203912
C      6.891377   -3.149175   -1.505754
O      6.970139   -3.545857   -2.783980
O      7.740153   -3.448247   -0.685738
C      2.884820   -1.307039   -0.612539
H      0.259134    2.683877   -2.264785
H     -1.070603    2.776534   -1.117441
H     -1.155092    1.605787   -2.495003
H     -1.406718    2.106870    1.322464
H     -2.518865   -0.639137    0.393241
H     -5.949822    3.094775   -0.456796
H     -7.196592    2.709203    1.606750
H     -4.050020    0.091821    3.005544
H      2.316922   -0.609175    2.319623
H      1.973184    1.056641    1.835065
H      0.818732    0.177702    2.839399
H      0.883722   -2.564031    1.254584
H     -0.561729   -1.738373    1.843448
H     -0.413266   -2.143254    0.129668
H      1.644229    1.143192   -3.408616
H      3.649563   -0.239418   -3.771936
H      4.874121   -2.350367   -3.145844
H      5.652219   -2.003523   -0.173643
H      7.799060   -4.068095   -2.817963
H      3.200675   -2.006204    0.157797
