49
Conformer 70, Energy = 12.1705 kcal/mol
C     -0.201674    2.122066   -2.155924
N      0.263559    0.973393   -1.371041
C     -0.223347    0.451213   -0.285856
C     -1.291475    1.086391    0.491062
C     -2.278671    0.422848    1.105904
C     -3.504170    1.177204    1.442921
C     -4.229027    1.873862    0.421777
O     -3.872442    1.938056   -0.804898
C     -5.409707    2.514382    0.857192
C     -5.856721    2.484088    2.182414
C     -5.103611    1.805699    3.137139
C     -3.922443    1.154028    2.782883
N     -5.539666    1.786489    4.536861
O     -6.693673    2.158842    4.794584
O     -4.725428    1.402157    5.393034
C      0.493676   -0.883283    0.064382
C     -0.406250   -2.105162   -0.181571
C      1.047364   -0.867290    1.491364
C      1.597538   -0.886168   -0.965643
C      1.422658    0.196802   -1.819136
C      2.271665    0.443314   -2.881719
C      3.336068   -0.443881   -3.077682
C      3.532468   -1.543294   -2.218800
C      4.646206   -2.459736   -2.472788
C      5.697084   -2.691290   -1.670237
C      5.963081   -2.022545   -0.384074
O      6.997017   -2.626850    0.227184
O      5.387436   -1.073879    0.108555
C      2.647946   -1.772951   -1.153809
H     -1.199886    2.415219   -1.843856
H      0.496015    2.949641   -2.009925
H     -0.240088    1.837590   -3.212594
H     -1.390053    2.168882    0.384145
H     -2.352335   -0.646563    1.227538
H     -6.012829    3.050678    0.121812
H     -6.779474    3.001156    2.435307
H     -3.320372    0.636495    3.525492
H      0.176813   -3.033251   -0.253665
H     -0.971272   -2.004682   -1.118440
H     -1.128772   -2.255773    0.627862
H      0.233852   -0.842602    2.229695
H      1.681089    0.009727    1.670038
H      1.649840   -1.758459    1.700942
H      2.141660    1.283857   -3.551004
H      4.023271   -0.272924   -3.906868
H      4.590390   -2.994744   -3.419635
H      6.448272   -3.414777   -1.974282
H      7.124805   -2.118307    1.058031
H      2.783615   -2.625670   -0.491754
