49
Conformer 26, Energy = -2.8705 kcal/mol
C     -1.069919   -1.237673    1.462077
N     -0.354311   -0.698076    0.307534
C     -0.755203   -0.430106   -0.900337
C     -2.123954   -0.518090   -1.463496
C     -3.272277   -0.076743   -0.925262
C     -3.552023    0.587723    0.372997
C     -2.729162    1.596254    0.954316
O     -1.638541    2.028781    0.454799
C     -3.194570    2.133018    2.178008
C     -4.377758    1.734222    2.804421
C     -5.156195    0.757010    2.200749
C     -4.755323    0.185578    0.991654
N     -6.399934    0.316675    2.837273
O     -7.029265   -0.606784    2.297964
O     -6.747576    0.877433    3.886996
C      0.446756   -0.015700   -1.800693
C      0.715279   -1.100742   -2.853738
C      0.240314    1.342179   -2.473937
C      1.568244    0.021886   -0.800174
C      1.071620   -0.366309    0.437558
C      1.869941   -0.417794    1.566626
C      3.219814   -0.080346    1.422906
C      3.738676    0.299935    0.169039
C      5.160064    0.620082    0.043946
C      6.110521   -0.207450   -0.417415
C      5.895285   -1.592571   -0.872192
O      7.066223   -2.115487   -1.274238
O      4.862622   -2.231262   -0.909312
C      2.903411    0.361736   -0.954573
H     -2.054211   -1.601319    1.162922
H     -0.508308   -2.093043    1.851083
H     -1.153184   -0.468986    2.233686
H     -2.169012   -0.894778   -2.481772
H     -4.167457   -0.182390   -1.539445
H     -2.600907    2.916669    2.654736
H     -4.664074    2.205655    3.740153
H     -5.373577   -0.574283    0.518200
H      0.799359   -2.094176   -2.396598
H     -0.093183   -1.150524   -3.591230
H      1.646595   -0.909311   -3.399337
H      1.099498    1.610009   -3.100044
H     -0.647737    1.340169   -3.115295
H      0.115875    2.146519   -1.742247
H      1.484169   -0.697965    2.539935
H      3.872946   -0.117593    2.293155
H      5.434051    1.622606    0.365642
H      7.137495    0.141091   -0.466045
H      6.835355   -3.025493   -1.554490
H      3.293549    0.659765   -1.923591
