49
Conformer 56, Energy = 8.3038 kcal/mol
C     -0.619112    1.638393   -2.191699
N      0.228940    0.985755   -1.186785
C      0.020807    0.830352    0.085411
C     -1.178418    1.283417    0.787840
C     -2.172495    0.393114    0.904571
C     -3.545253    0.890357    1.085618
C     -4.207052    1.517211   -0.013313
O     -3.685958    1.675953   -1.171198
C     -5.517426    1.961783    0.259153
C     -6.141133    1.808579    1.502948
C     -5.448306    1.185796    2.538018
C     -4.148387    0.721177    2.340186
N     -6.085884    1.019154    3.846088
O     -7.247126    1.431183    3.986504
O     -5.426256    0.476624    4.746836
C      1.213093    0.136607    0.779379
C      0.800940   -1.186529    1.428740
C      1.853803    1.077123    1.803512
C      2.127927   -0.097781   -0.394763
C      1.519979    0.392247   -1.547448
C      2.108770    0.281992   -2.793526
C      3.356974   -0.346496   -2.866107
C      3.983620   -0.849156   -1.707559
C      5.270428   -1.535340   -1.828650
C      5.463182   -2.861894   -1.754865
C      4.411460   -3.873239   -1.545297
O      4.963198   -5.097896   -1.549441
O      3.219287   -3.705155   -1.385442
C      3.367938   -0.714656   -0.455264
H      0.009236    2.104410   -2.955542
H     -1.191130    2.435860   -1.715429
H     -1.265699    0.883100   -2.643301
H     -1.357313    2.349335    0.896799
H     -2.091728   -0.659800    0.657464
H     -6.075641    2.447019   -0.543587
H     -7.154706    2.178003    1.629776
H     -3.599461    0.233258    3.140359
H      0.292828   -1.844279    0.713376
H      0.115147   -1.022590    2.267230
H      1.669506   -1.731019    1.816714
H      2.767800    0.645734    2.227334
H      2.121186    2.040597    1.352968
H      1.167997    1.286345    2.632300
H      1.636125    0.642751   -3.700515
H      3.836167   -0.465136   -3.837308
H      6.124151   -0.885385   -2.009042
H      6.467443   -3.258886   -1.867826
H      4.204115   -5.702872   -1.412388
H      3.836435   -1.115123    0.440079
