49
Conformer 52, Energy = 6.1425 kcal/mol
C     -0.540058    1.888804   -1.836948
N      0.139450    0.993221   -0.892191
C     -0.186896    0.672030    0.323251
C     -1.382406    1.156567    1.012264
C     -2.453071    0.352661    0.965445
C     -3.788193    0.960860    1.066968
C     -4.306108    1.665867   -0.061347
O     -3.683723    1.800674   -1.171515
C     -5.589520    2.219329    0.124524
C     -6.316287    2.098104    1.315037
C     -5.760311    1.397532    2.382770
C     -4.494627    0.823053    2.269817
N     -6.506800    1.264689    3.635952
O     -7.639139    1.766655    3.697149
O     -5.961976    0.659096    4.572608
C      0.863575   -0.260760    0.968279
C      0.262782   -1.605940    1.381501
C      1.527472    0.434177    2.160402
C      1.833030   -0.430611   -0.174057
C      1.378500    0.304143   -1.264324
C      2.055276    0.323281   -2.468504
C      3.236430   -0.423982   -2.560936
C      3.713236   -1.181498   -1.468071
C      4.965336   -1.946786   -1.539026
C      5.366986   -2.627215   -2.624028
C      6.615960   -3.400161   -2.682908
O      7.324899   -3.378388   -1.544916
O      6.995208   -4.012485   -3.664400
C      3.003715   -1.171514   -0.256627
H      0.208425    2.452145   -2.401640
H     -1.140698    2.613239   -1.285389
H     -1.147540    1.284075   -2.513671
H     -1.484079    2.219100    1.213814
H     -2.444637   -0.670056    0.604342
H     -6.041279    2.767335   -0.704356
H     -7.300767    2.553249    1.376279
H     -4.051933    0.273142    3.095097
H      1.036133   -2.302152    1.725852
H     -0.262768   -2.084855    0.546752
H     -0.457438   -1.487269    2.198400
H      1.935123    1.412967    1.879979
H      2.352416   -0.163394    2.564731
H      0.809033    0.602751    2.970587
H      1.707776    0.887492   -3.327557
H      3.792309   -0.403268   -3.497902
H      5.566101   -1.957689   -0.631083
H      4.785288   -2.663889   -3.538175
H      8.109516   -3.930036   -1.747818
H      3.356282   -1.744290    0.598504
