49
Conformer 57, Energy = 8.3042 kcal/mol
C     -0.917925    1.078567   -2.422880
N     -0.214763    0.145058   -1.534687
C     -0.608456   -0.372922   -0.410963
C     -1.891742   -0.084772    0.227128
C     -1.899566    0.910554    1.123689
C     -3.166471    1.610333    1.387067
C     -3.693491    2.487524    0.391517
O     -3.129926    2.719900   -0.733630
C     -4.911528    3.109999    0.734662
C     -5.569223    2.899523    1.952338
C     -5.006680    2.034599    2.887524
C     -3.803299    1.384317    2.615700
N     -5.683419    1.801899    4.165395
O     -6.737619    2.415960    4.388223
O     -5.165814    0.997488    4.956562
C      0.431493   -1.362775    0.157798
C     -0.153290   -2.776696    0.211152
C      0.940443   -0.924942    1.533065
C      1.518792   -1.259962   -0.880272
C      1.126419   -0.350380   -1.858459
C      1.941908   -0.018779   -2.924529
C      3.196089   -0.635453   -2.996057
C      3.607759   -1.557079   -2.011752
C      4.941044   -2.153751   -2.101269
C      5.997218   -1.838871   -1.334579
C      6.012393   -0.824784   -0.264875
O      7.239442   -0.768173    0.278676
O      5.104244   -0.117014    0.121584
C      2.755845   -1.882090   -0.946794
H     -0.630065    2.097086   -2.154115
H     -1.993327    0.919233   -2.333351
H     -0.646869    0.870194   -3.461489
H     -2.807378   -0.428194   -0.245665
H     -1.012878    1.400496    1.511197
H     -5.362592    3.794934    0.014329
H     -6.504294    3.419799    2.139427
H     -3.355150    0.708905    3.338520
H     -0.977036   -2.837648    0.931335
H      0.603200   -3.512782    0.506228
H     -0.551404   -3.084570   -0.763320
H      1.760838   -1.563900    1.879594
H      0.146250   -0.973523    2.286168
H      1.312041    0.106618    1.514467
H      1.654425    0.702687   -3.681570
H      3.867739   -0.379527   -3.814870
H      5.057246   -2.906801   -2.877845
H      6.942143   -2.347903   -1.499199
H      7.164866   -0.073664    0.966520
H      3.072367   -2.578719   -0.174780
