49
Conformer 80, Energy = 14.2515 kcal/mol
C     -0.370438    1.339908   -2.627579
N      0.248771    0.760522   -1.429416
C     -0.219047    0.581191   -0.219659
C     -1.534111    1.065090    0.219526
C     -2.211259    0.652007    1.299428
C     -3.646842    0.995688    1.403597
C     -4.543968    0.734963    0.321782
O     -4.194544    0.234581   -0.799342
C     -5.892845    1.069798    0.567709
C     -6.341996    1.625485    1.767039
C     -5.424138    1.878053    2.780622
C     -4.078340    1.552010    2.616357
N     -5.872291    2.522989    4.012155
O     -7.092138    2.668756    4.191357
O     -5.000882    2.898726    4.812112
C      0.806348   -0.183058    0.667652
C      1.182219    0.622586    1.913895
C      0.351567   -1.604029    1.020758
C      1.984993   -0.278465   -0.276842
C      1.626148    0.259505   -1.506367
C      2.500603    0.300888   -2.578698
C      3.772213   -0.250936   -2.395823
C      4.144032   -0.826587   -1.160355
C      5.458351   -1.449196   -0.974314
C      5.883307   -2.584366   -1.552881
C      5.138947   -3.418913   -2.519327
O      5.803207   -4.572769   -2.703926
O      4.105016   -3.169779   -3.105980
C      3.247485   -0.823209   -0.079255
H      0.238912    2.196654   -2.959586
H     -1.387046    1.684297   -2.416751
H     -0.408558    0.564924   -3.409222
H     -2.057712    1.747240   -0.452083
H     -1.851577   -0.051350    2.045091
H     -6.628089    0.873154   -0.217064
H     -7.399218    1.856933    1.869985
H     -3.363368    1.730441    3.414667
H      0.347863    0.696427    2.620109
H      1.472758    1.650938    1.651360
H      2.023791    0.167409    2.451542
H      1.154513   -2.160669    1.516187
H     -0.508373   -1.616846    1.700171
H      0.063948   -2.170882    0.127038
H      2.234435    0.730801   -3.539444
H      4.472239   -0.257911   -3.232048
H      6.108792   -0.949988   -0.249068
H      6.866932   -2.962485   -1.292556
H      5.268576   -5.062422   -3.374882
H      3.520812   -1.268104    0.875240
