49
Conformer 16, Energy = -5.2228 kcal/mol
C     -0.622703   -3.265639    1.490781
N     -0.319558   -2.211252    0.518833
C     -1.107587   -1.565282   -0.287093
C     -2.549789   -1.826691   -0.451597
C     -3.515182   -1.078542    0.102089
C     -3.367610    0.148922    0.917685
C     -2.564397    0.224051    2.092290
O     -1.889652   -0.741876    2.579649
C     -2.557475    1.480607    2.740987
C     -3.283715    2.589650    2.298115
C     -4.067866    2.465494    1.159147
C     -4.120158    1.253574    0.469621
N     -4.837510    3.612769    0.672878
O     -5.470510    3.477393   -0.385970
O     -4.807585    4.659018    1.337747
C     -0.305877   -0.589034   -1.190001
C     -0.381367   -1.054204   -2.650150
C     -0.750717    0.866873   -1.070755
C      1.089123   -0.771757   -0.646850
C      1.050594   -1.713969    0.373685
C      2.184675   -2.088874    1.068206
C      3.394158   -1.480198    0.711846
C      3.454513   -0.511224   -0.313846
C      4.761874    0.067619   -0.652501
C      4.943063    1.348495   -1.010497
C      6.255616    1.922925   -1.337724
O      7.273156    1.055465   -1.232001
O      6.432048    3.077791   -1.680594
C      2.284426   -0.164657   -1.008504
H     -0.250818   -2.977023    2.477480
H     -0.124947   -4.183019    1.162325
H     -1.699627   -3.446671    1.533294
H     -2.816797   -2.720465   -1.005496
H     -4.551582   -1.377543   -0.045804
H     -1.959744    1.588839    3.648737
H     -3.224408    3.517071    2.860323
H     -4.735920    1.156080   -0.421567
H     -0.086337   -2.105410   -2.754663
H      0.277167   -0.461529   -3.295493
H     -1.400927   -0.963303   -3.041721
H     -0.108347    1.530653   -1.661519
H     -1.773582    1.002023   -1.435672
H     -0.708581    1.219731   -0.035110
H      2.161017   -2.815255    1.872983
H      4.298715   -1.754146    1.254562
H      5.612616   -0.606766   -0.574309
H      4.124981    2.057601   -1.070724
H      8.058540    1.589424   -1.474106
H      2.304594    0.562263   -1.816082
