49
Conformer 82, Energy = 14.4558 kcal/mol
C     -0.464454    1.862873   -1.899339
N      0.117352    0.867787   -0.995040
C     -0.227360    0.517104    0.207966
C     -1.397905    0.971338    0.967413
C     -2.617921    1.023450    0.413357
C     -3.803547    1.183336    1.277120
C     -4.093846    0.223237    2.290561
O     -3.380240   -0.811298    2.525237
C     -5.259406    0.481057    3.043679
C     -6.091422    1.584754    2.827159
C     -5.768543    2.485060    1.817222
C     -4.629370    2.292375    1.034730
N     -6.626610    3.645895    1.570417
O     -6.297096    4.424537    0.660727
O     -7.632310    3.792212    2.280677
C      0.773080   -0.511737    0.802580
C      0.075706   -1.830278    1.143903
C      1.495522    0.067278    2.022495
C      1.726009   -0.688711   -0.350827
C      1.319160    0.124835   -1.398871
C      1.992375    0.156587   -2.605833
C      3.123650   -0.658593   -2.740029
C      3.566697   -1.478653   -1.678925
C      4.731899   -2.363426   -1.812602
C      5.850696   -2.034248   -2.476967
C      7.017407   -2.920603   -2.596484
O      6.873548   -4.097973   -1.972109
O      8.032833   -2.632652   -3.203483
C      2.845139   -1.500408   -0.475313
H     -1.149079    2.515115   -1.352889
H     -0.996439    1.338908   -2.697608
H      0.335280    2.484377   -2.312622
H     -1.294799    1.049858    2.048509
H     -2.836213    0.819174   -0.627145
H     -5.527295   -0.223267    3.833738
H     -6.971841    1.708368    3.450981
H     -4.372958    2.992490    0.245461
H     -0.513321   -2.204582    0.298103
H      0.797291   -2.609130    1.415672
H     -0.607451   -1.709382    1.990185
H      2.294745   -0.598007    2.368736
H      1.949197    1.039723    1.796203
H      0.806525    0.218345    2.860618
H      1.674312    0.770819   -3.441110
H      3.653555   -0.662808   -3.692136
H      4.654736   -3.326886   -1.310676
H      5.977665   -1.075788   -2.966933
H      7.719411   -4.562972   -2.142778
H      3.155635   -2.139491    0.349186
