49
Conformer 10, Energy = -5.4459 kcal/mol
C     -1.346598    2.009674   -0.219446
N     -0.591163    0.798210   -0.534503
C     -0.979691   -0.366914   -0.962684
C     -2.359805   -0.855952   -1.195508
C     -3.428502   -0.735303   -0.391500
C     -3.590593   -0.072090    0.927334
C     -2.627374   -0.122776    1.976975
O     -1.497522   -0.709582    1.905617
C     -2.992314    0.540150    3.172605
C     -4.206686    1.205936    3.355470
C     -5.121933    1.223589    2.312762
C     -4.825402    0.588118    1.105477
N     -6.401540    1.918085    2.474828
O     -7.158339    1.970512    1.492882
O     -6.651578    2.429583    3.576149
C      0.247153   -1.272246   -1.284770
C      0.348664   -1.502579   -2.799638
C      0.205681   -2.609764   -0.543627
C      1.386418   -0.407825   -0.817032
C      0.868152    0.795978   -0.359699
C      1.677076    1.786830    0.163843
C      3.055589    1.544477    0.208584
C      3.605929    0.334986   -0.270463
C      5.058637    0.139195   -0.162114
C      5.792802   -0.577462   -1.026553
C      7.243136   -0.692075   -0.825393
O      7.777469   -1.476463   -1.774226
O      7.913152   -0.176151    0.047260
C      2.751821   -0.658323   -0.775415
H     -2.376458    1.916378   -0.567634
H     -0.893728    2.850568   -0.754429
H     -1.310812    2.194819    0.856466
H     -2.476309   -1.475273   -2.080765
H     -4.342968   -1.228570   -0.723647
H     -2.288917    0.517976    4.008472
H     -4.408596    1.682290    4.310572
H     -5.550382    0.597499    0.294230
H      0.310113   -0.557368   -3.354629
H     -0.474118   -2.126803   -3.164847
H      1.285842   -2.004113   -3.067667
H      1.076324   -3.228390   -0.791014
H     -0.690958   -3.183322   -0.802546
H      0.208388   -2.475671    0.542538
H      1.279993    2.717548    0.553100
H      3.707834    2.309703    0.629138
H      5.543985    0.636291    0.677786
H      5.377941   -1.079967   -1.890415
H      8.732117   -1.495204   -1.552187
H      3.138070   -1.618211   -1.106824
