49
Conformer 13, Energy = -5.2733 kcal/mol
C     -0.654850   -3.337497    1.180547
N     -0.181278   -1.954874    1.069691
C     -0.698128   -0.854949    1.528594
C     -1.906858   -0.773275    2.369576
C     -3.117829   -0.425920    1.910185
C     -3.494197   -0.014359    0.538075
C     -3.221490   -0.793974   -0.623078
O     -2.631175   -1.924206   -0.623244
C     -3.671876   -0.239577   -1.843745
C     -4.350458    0.978368   -1.942354
C     -4.610368    1.695646   -0.782563
C     -4.193335    1.207009    0.456043
N     -5.319097    2.974698   -0.858237
O     -5.784146    3.319561   -1.955035
O     -5.408013    3.648279    0.180364
C      0.216867    0.362590    1.225496
C     -0.468055    1.459358    0.413108
C      0.771338    0.933921    2.537145
C      1.315703   -0.292827    0.427130
C      1.042076   -1.651427    0.323364
C      1.861721   -2.512395   -0.380961
C      2.997851   -1.970203   -0.993792
C      3.305766   -0.595966   -0.885311
C      4.497362   -0.089550   -1.579968
C      5.295384    0.872250   -1.090929
C      6.493072    1.367174   -1.784379
O      6.731103    0.766590   -2.959147
O      7.221356    2.241150   -1.350035
C      2.441806    0.252893   -0.174772
H      0.072273   -3.898439    1.775533
H     -0.737785   -3.781100    0.184753
H     -1.622483   -3.368789    1.687123
H     -1.794132   -1.077173    3.404983
H     -3.956582   -0.433063    2.604526
H     -3.492323   -0.802246   -2.762617
H     -4.666327    1.328188   -2.920972
H     -4.400414    1.768130    1.364393
H     -1.286358    1.919623    0.975232
H      0.233602    2.260726    0.152904
H     -0.875738    1.072805   -0.526707
H     -0.025021    1.387238    3.138009
H      1.528048    1.704918    2.351536
H      1.238387    0.155357    3.152124
H      1.643389   -3.569459   -0.484791
H      3.650952   -2.630167   -1.564397
H      4.723028   -0.560366   -2.535112
H      5.115030    1.347156   -0.133171
H      7.541830    1.206810   -3.289647
H      2.630372    1.321365   -0.112556
