49
Conformer 38, Energy = -0.1230 kcal/mol
C     -0.459172    1.154672    2.083743
N     -0.025949   -0.009647    1.313389
C     -0.674588   -1.066001    0.919386
C     -2.114723   -1.380994    1.076130
C     -3.167059   -0.580972    0.840201
C     -3.238287    0.834722    0.397492
C     -2.400818    1.407504   -0.603976
O     -1.468710    0.791598   -1.218744
C     -2.657443    2.764832   -0.910518
C     -3.657862    3.526071   -0.301294
C     -4.458835    2.928328    0.661224
C     -4.259648    1.591492    1.011021
N     -5.512563    3.704014    1.319939
O     -6.154212    3.152062    2.227307
O     -5.694614    4.872703    0.948330
C      0.291319   -2.087111    0.247422
C      0.445214   -3.329604    1.136481
C     -0.157083   -2.490036   -1.158626
C      1.577091   -1.307861    0.223336
C      1.364757   -0.082462    0.842424
C      2.363579    0.869199    0.950532
C      3.613897    0.563559    0.402038
C      3.838140   -0.670833   -0.240164
C      5.135492   -0.935029   -0.863096
C      5.404761   -0.891519   -2.178509
C      4.510224   -0.550380   -3.298492
O      3.415309    0.129220   -2.942463
O      4.753170   -0.822648   -4.461095
C      2.812523   -1.623607   -0.321145
H     -1.449274    0.981793    2.508524
H     -0.455577    2.039799    1.443663
H      0.235654    1.298148    2.917406
H     -2.327210   -2.421027    1.308479
H     -4.154067   -1.031133    0.954052
H     -2.046565    3.242892   -1.679993
H     -3.791042    4.560943   -0.603284
H     -4.896161    1.125135    1.760141
H     -0.482321   -3.911262    1.173802
H      0.699858   -3.058349    2.168233
H      1.235188   -3.993043    0.765697
H      0.535968   -3.212847   -1.604934
H     -1.150803   -2.950776   -1.145513
H     -0.201077   -1.631386   -1.835744
H      2.197418    1.838446    1.406444
H      4.408181    1.307389    0.440168
H      5.929742   -1.202846   -0.170114
H      6.403704   -1.155501   -2.514872
H      2.913684    0.281981   -3.769928
H      2.970791   -2.569625   -0.831587
