49
Conformer 24, Energy = -3.2463 kcal/mol
C     -0.594035   -3.221167   -0.882409
N     -0.186063   -1.817016   -0.788348
C     -0.824310   -0.736233   -1.123080
C     -2.149357   -0.701222   -1.770225
C     -3.293929   -0.439972   -1.122203
C     -3.476398   -0.091618    0.305479
C     -2.998841   -0.896179    1.380140
O     -2.372258   -1.998556    1.245507
C     -3.277400   -0.402211    2.675510
C     -3.979143    0.780838    2.923441
C     -4.442103    1.523628    1.845569
C     -4.201904    1.094058    0.539986
N     -5.178314    2.768202    2.078050
O     -5.523009    3.430282    1.086594
O     -5.408567    3.099161    3.250789
C      0.059060    0.523111   -0.914162
C     -0.552822    1.554053    0.031543
C      0.378628    1.163359   -2.271431
C      1.297550   -0.089456   -0.312707
C      1.120434   -1.465630   -0.226945
C      2.091292   -2.303412    0.291106
C      3.285992   -1.719403    0.724797
C      3.484798   -0.327090    0.630920
C      4.757587    0.248690    1.064198
C      5.759347    0.631705    0.257263
C      5.764207    0.531512   -1.213088
O      6.923466    1.017671   -1.688037
O      4.903050    0.094182   -1.949839
C      2.477044    0.499998    0.115644
H     -1.622871   -3.295795   -1.243429
H     -0.503788   -3.698533    0.096955
H      0.066181   -3.719524   -1.598707
H     -2.177757   -0.968792   -2.821203
H     -4.227145   -0.476986   -1.681581
H     -2.935628   -0.984946    3.533742
H     -4.153028    1.084602    3.951590
H     -4.565738    1.674928   -0.304412
H      0.137714    2.385145    0.217560
H     -1.467738    1.984655   -0.387028
H     -0.796454    1.116157    1.005131
H     -0.523675    1.577526   -2.735422
H      1.105169    1.977858   -2.170906
H      0.798163    0.432528   -2.973478
H      1.952581   -3.375589    0.370886
H      4.071407   -2.354879    1.130978
H      4.869842    0.355260    2.141108
H      6.661678    1.047593    0.694950
H      6.844873    0.913352   -2.659088
H      2.622213    1.574153    0.041202
