49
Conformer 44, Energy = 5.4350 kcal/mol
C     -1.113596    1.078908   -2.349087
N     -0.293776    0.341713   -1.379119
C     -0.618150   -0.133380   -0.214710
C     -1.939822    0.007294    0.395116
C     -2.089415    1.031940    1.245103
C     -3.433309    1.602637    1.421808
C     -3.974143    2.416284    0.380720
O     -3.359562    2.692977   -0.707254
C     -5.267424    2.918206    0.632889
C     -5.982561    2.651571    1.806621
C     -5.403404    1.851687    2.788781
C     -4.126547    1.321181    2.607216
N     -6.140042    1.560909    4.020922
O     -5.600107    0.818292    4.856336
O     -7.263385    2.066732    4.162861
C      0.556376   -0.898927    0.436341
C      0.196937   -2.378014    0.603362
C      0.975512   -0.281239    1.772050
C      1.630341   -0.713026   -0.605910
C      1.112369    0.036054   -1.657726
C      1.880767    0.399007   -2.746382
C      3.213307   -0.030807   -2.769930
C      3.753854   -0.813462   -1.725292
C      5.168090   -1.203215   -1.806345
C      5.662239   -2.357981   -1.334742
C      7.094668   -2.647320   -1.485212
O      7.382619   -3.835865   -0.933707
O      7.936572   -1.951871   -2.018130
C      2.950020   -1.144180   -0.622598
H     -2.165000    0.827918   -2.202924
H     -0.843745    0.765550   -3.361740
H     -0.926177    2.147238   -2.221741
H     -2.797024   -0.455756   -0.085290
H     -1.279697    1.645944    1.624129
H     -5.733365    3.550724   -0.124910
H     -6.974520    3.078599    1.923954
H     -3.664464    0.697642    3.366918
H      1.053679   -2.961350    0.959503
H     -0.133765   -2.821376   -0.343693
H     -0.618346   -2.508292    1.323990
H      0.191215   -0.395828    2.528268
H      1.181561    0.791095    1.671948
H      1.881844   -0.754763    2.166612
H      1.495406    1.000829   -3.562611
H      3.838149    0.246476   -3.619643
H      5.830071   -0.495803   -2.306134
H      5.058977   -3.114966   -0.850704
H      8.346521   -3.938897   -1.081146
H      3.350251   -1.711090    0.214148
