49
Conformer 85, Energy = 14.5759 kcal/mol
C     -0.583282    1.946855   -1.985192
N      0.094068    0.998744   -1.097067
C     -0.183321    0.637079    0.119935
C     -1.351152    1.024453    0.919171
C     -2.592168    0.986852    0.412630
C     -3.752893    1.086429    1.318484
C     -3.937350    0.136467    2.365723
O     -3.144671   -0.839274    2.598180
C     -5.089745    0.332928    3.156741
C     -6.005199    1.369491    2.945398
C     -5.784243    2.262024    1.901764
C     -4.663819    2.127901    1.080891
N     -6.730819    3.352909    1.659504
O     -6.488908    4.129542    0.721081
O     -7.719556    3.446011    2.401823
C      0.900967   -0.321859    0.683212
C      0.300966   -1.678898    1.057281
C      1.629268    0.311155    1.872410
C      1.820142   -0.448940   -0.504004
C      1.325398    0.330494   -1.540476
C      1.959576    0.408038   -2.766081
C      3.137042   -0.331203   -2.933969
C      3.652761   -1.138710   -1.896402
C      4.907384   -1.865307   -2.134247
C      5.172084   -3.086755   -1.644581
C      6.427086   -3.809028   -1.898452
O      7.293382   -3.141068   -2.674454
O      6.682682   -4.914067   -1.456428
C      2.986704   -1.185352   -0.661781
H      0.158413    2.619025   -2.426467
H     -1.292978    2.553990   -1.419125
H     -1.103910    1.383386   -2.763830
H     -1.211551    1.128291    1.994033
H     -2.835057    0.751931   -0.615922
H     -5.277919   -0.366570    3.973636
H     -6.868601    1.448363    3.599524
H     -4.487049    2.822321    0.265186
H      1.079713   -2.408723    1.306526
H     -0.357385   -1.594615    1.927327
H     -0.293599   -2.096094    0.235737
H      0.962752    0.425991    2.734144
H      2.480419   -0.300147    2.193460
H      2.012806    1.308028    1.623782
H      1.583139    1.007592   -3.587498
H      3.654824   -0.285982   -3.892552
H      5.634736   -1.360159   -2.767512
H      4.466486   -3.636062   -1.031297
H      8.059925   -3.748692   -2.741361
H      3.372456   -1.778780    0.164025
