49
Conformer 33, Energy = -0.3300 kcal/mol
C      0.240206   -1.662647    3.161425
N      0.503009   -0.634147    2.151053
C     -0.148944    0.455920    1.878104
C     -1.318762    0.953060    2.626597
C     -2.586783    0.825650    2.209363
C     -3.078469    0.234645    0.943666
C     -2.752685   -1.083027    0.510227
O     -2.013800   -1.901301    1.150769
C     -3.327356   -1.474123   -0.721212
C     -4.169228   -0.657743   -1.481663
C     -4.474181    0.612659   -1.011592
C     -3.940961    1.062541    0.196737
N     -5.352566    1.488696   -1.790104
O     -5.837070    1.043428   -2.841140
O     -5.555452    2.634799   -1.359575
C      0.563336    1.270317    0.764495
C     -0.309867    1.531095   -0.460953
C      1.085660    2.592285    1.341672
C      1.709296    0.352624    0.423087
C      1.637830   -0.773963    1.235036
C      2.548607   -1.810483    1.140004
C      3.558732   -1.698742    0.178728
C      3.638618   -0.566145   -0.656921
C      4.679027   -0.496943   -1.682378
C      4.542694   -0.808069   -2.981746
C      3.365043   -1.301103   -3.716162
O      2.305532   -1.590677   -2.954275
O      3.344594   -1.454946   -4.925093
C      2.709672    0.476240   -0.529377
H     -0.688003   -1.444088    3.695311
H      0.176615   -2.643437    2.682711
H      1.067421   -1.654112    3.877588
H     -1.117219    1.387615    3.600017
H     -3.384104    1.191340    2.854279
H     -3.112207   -2.477719   -1.094485
H     -4.571898   -1.040180   -2.415058
H     -4.181418    2.056874    0.565997
H     -1.160061    2.174521   -0.214375
H     -0.698637    0.600160   -0.886672
H      0.254699    2.035041   -1.254316
H      1.695757    2.428129    2.238240
H      0.259191    3.252386    1.628495
H      1.705466    3.130878    0.615613
H      2.486205   -2.698939    1.758146
H      4.273158   -2.512039    0.060323
H      5.646558   -0.152045   -1.323826
H      5.406183   -0.690822   -3.631991
H      1.621401   -1.907248   -3.579807
H      2.755162    1.343784   -1.182046
