49
Conformer 43, Energy = 5.3960 kcal/mol
C     -0.598595    1.762307   -1.901249
N      0.111584    0.946088   -0.908430
C     -0.195870    0.693728    0.328037
C     -1.398401    1.189530    0.996840
C     -2.446782    0.355536    1.011043
C     -3.797502    0.933071    1.078892
C     -4.342987    1.533776   -0.095880
O     -3.732749    1.598088   -1.219022
C     -5.639498    2.065796    0.058731
C     -6.353426    2.018888    1.262154
C     -5.770375    1.419046    2.375846
C     -4.490446    0.871244    2.295745
N     -6.503390    1.365119    3.642784
O     -7.647346    1.842786    3.676281
O     -5.936356    0.846883    4.617823
C      0.884614   -0.168991    1.019639
C      0.323508   -1.500956    1.521830
C      1.539547    0.616313    2.159405
C      1.848629   -0.384746   -0.119593
C      1.365200    0.267365   -1.249111
C      2.030503    0.228179   -2.459216
C      3.230520   -0.491980   -2.516899
C      3.737414   -1.165676   -1.383517
C      5.009166   -1.899561   -1.417962
C      5.437105   -2.616675   -2.468030
C      6.722262   -3.323371   -2.385576
O      6.967776   -3.965375   -3.537531
O      7.488290   -3.353993   -1.442690
C      3.038264   -1.097910   -0.167716
H      0.130557    2.315159   -2.500601
H     -1.187177    1.099683   -2.539352
H     -1.221646    2.498149   -1.391220
H     -1.528273    2.259835    1.128880
H     -2.412350   -0.687777    0.716372
H     -6.112275    2.535158   -0.805874
H     -7.349404    2.451142    1.297328
H     -4.026603    0.399636    3.157045
H      1.118082   -2.154029    1.900659
H     -0.196369   -2.044425    0.723913
H     -0.392505   -1.350399    2.337150
H      2.383027    0.066673    2.592420
H      0.823414    0.816987    2.964318
H      1.919146    1.585677    1.814324
H      1.660169    0.727735   -3.348245
H      3.777230   -0.515592   -3.459073
H      5.610029   -1.857176   -0.509555
H      4.877926   -2.722832   -3.388710
H      7.832472   -4.402557   -3.387764
H      3.413894   -1.605558    0.718269
