49
Conformer 84, Energy = 14.5405 kcal/mol
C     -0.631269    1.258311   -2.542035
N      0.035488    0.446240   -1.518254
C     -0.264886    0.259934   -0.264160
C     -1.297553    1.029544    0.439815
C     -2.220276    0.462927    1.218580
C     -3.467298    1.214547    1.448316
C     -4.314407    1.528654    0.342769
O     -4.052910    1.227242   -0.879319
C     -5.494954    2.217788    0.683892
C     -5.838646    2.566421    1.995335
C     -4.966548    2.245412    3.030645
C     -3.777918    1.569769    2.765731
N     -5.299350    2.597474    4.409654
O     -4.382600    2.580811    5.241746
O     -6.473678    2.904920    4.663606
C      0.639275   -0.827556    0.376047
C     -0.129425   -2.122553    0.680450
C      1.356398   -0.293146    1.624523
C      1.607149   -1.086256   -0.753423
C      1.214316   -0.349888   -1.866674
C      1.904990   -0.389403   -3.064705
C      3.035717   -1.213610   -3.129174
C      3.447969   -1.970789   -2.005793
C      4.631619   -2.821106   -2.101325
C      5.845886   -2.567964   -1.591145
C      6.338036   -1.401310   -0.846677
O      5.518340   -0.342336   -0.834845
O      7.432424   -1.361266   -0.309870
C      2.723733   -1.912014   -0.807834
H     -0.847037    0.625511   -3.410132
H      0.034366    2.073320   -2.822281
H     -1.559095    1.668404   -2.157724
H     -1.452604    2.060941    0.115399
H     -2.248345   -0.570923    1.516117
H     -6.180581    2.479512   -0.117046
H     -6.774793    3.080863    2.179974
H     -3.093229    1.321107    3.566614
H      0.536062   -2.979859    0.801281
H     -0.708111   -2.046270    1.601504
H     -0.828787   -2.377522   -0.126365
H      2.119671   -1.002469    1.986408
H      1.859838    0.666449    1.423330
H      0.647391   -0.126013    2.443691
H      1.608717    0.191245   -3.930230
H      3.604624   -1.262409   -4.056058
H      4.478462   -3.755821   -2.636404
H      6.624084   -3.320277   -1.714852
H      6.030963    0.329186   -0.327776
H      3.028783   -2.505772    0.051589
