49
Conformer 45, Energy = 5.4351 kcal/mol
C     -0.607387    2.017779   -1.869675
N      0.073577    1.023036   -1.031117
C     -0.211900    0.619954    0.170055
C     -1.352256    1.096806    0.951529
C     -2.459661    0.345013    0.894833
C     -3.759263    0.997904    1.113286
C     -4.293965    1.822553    0.077709
O     -3.716350    2.030227   -1.045313
C     -5.540858    2.410613    0.373553
C     -6.218655    2.213619    1.582667
C     -5.648633    1.397116    2.556465
C     -4.417181    0.782325    2.332161
N     -6.343765    1.183734    3.827921
O     -7.448322    1.724480    3.987481
O     -5.785755    0.474897    4.680625
C      0.823701   -0.403326    0.689530
C      1.568183    0.164914    1.901001
C      0.182530   -1.752301    1.021966
C      1.735461   -0.518116   -0.506193
C      1.263939    0.317208   -1.513972
C      1.878076    0.394217   -2.748576
C      3.018236   -0.392346   -2.954231
C      3.529713   -1.228939   -1.937153
C      4.713507   -2.046073   -2.236222
C      5.658722   -2.364142   -1.338736
C      6.808628   -3.177574   -1.756149
O      7.620455   -3.394403   -0.710381
O      7.039507   -3.615509   -2.865806
C      2.866058   -1.299870   -0.701853
H      0.138477    2.587691   -2.431234
H     -1.142753    2.724733   -1.234539
H     -1.277477    1.494430   -2.555063
H     -1.395767    2.142797    1.241359
H     -2.514784   -0.644838    0.454943
H     -6.003288    3.049428   -0.381119
H     -7.177286    2.702506    1.731344
H     -3.964049    0.142352    3.083560
H      2.005666    1.146209    1.680751
H      2.382994   -0.496196    2.217469
H      0.893530    0.295441    2.754680
H     -0.496362   -1.671305    1.877927
H      0.938426   -2.504857    1.274230
H     -0.398658   -2.140256    0.176921
H      1.508277    1.025011   -3.549988
H      3.517475   -0.347969   -3.922790
H      4.812032   -2.383595   -3.268099
H      5.636804   -2.042617   -0.305589
H      8.346772   -3.938159   -1.082190
H      3.213627   -1.964601    0.084937
