49
Conformer 98, Energy = 19.2836 kcal/mol
C     -1.379643   -0.917178   -2.129105
N     -0.338552   -0.870695   -1.100447
C     -0.419095   -0.576439    0.161813
C     -1.613980   -0.136889    0.883666
C     -2.302960    0.940676    0.482119
C     -3.349882    1.519058    1.350800
C     -3.085301    1.849420    2.714032
O     -1.958145    1.677881    3.293056
C     -4.173883    2.407896    3.419747
C     -5.427564    2.645897    2.847465
C     -5.629045    2.321861    1.510408
C     -4.598188    1.763315    0.753513
N     -6.929932    2.569808    0.886117
O     -7.865272    2.941565    1.610092
O     -7.025879    2.389479   -0.338412
C      0.950779   -0.735062    0.870557
C      0.887096   -1.800073    1.967761
C      1.436279    0.607653    1.424428
C      1.817023   -1.185535   -0.276553
C      1.042456   -1.247161   -1.429283
C      1.568890   -1.615529   -2.654294
C      2.930467   -1.933686   -2.701487
C      3.728837   -1.874514   -1.540335
C      5.151687   -2.200825   -1.614864
C      6.136817   -1.402591   -2.055607
C      6.077479   -0.017957   -2.547516
O      4.923341    0.620260   -2.320461
O      7.008194    0.540227   -3.100958
C      3.167197   -1.499429   -0.312724
H     -1.320283   -1.873771   -2.655941
H     -2.367784   -0.838919   -1.671547
H     -1.221490   -0.086678   -2.821139
H     -1.813480   -0.588836    1.853859
H     -2.085889    1.501768   -0.418448
H     -4.023728    2.675990    4.467507
H     -6.210184    3.083539    3.459838
H     -4.753822    1.511929   -0.291205
H      0.475462   -2.743217    1.589108
H      0.249638   -1.478778    2.798822
H      1.880787   -2.013600    2.377922
H      1.420362    1.388210    0.654083
H      0.802640    0.951504    2.248634
H      2.461727    0.537865    1.804807
H      0.976699   -1.660069   -3.560942
H      3.379211   -2.222382   -3.651568
H      5.404027   -3.204670   -1.278469
H      7.148844   -1.800482   -2.079420
H      5.089996    1.519970   -2.671451
H      3.778044   -1.440803    0.584934
