49
Conformer 47, Energy = 5.4480 kcal/mol
C     -0.901426    1.128029   -2.194213
N     -0.203634    0.309110   -1.194954
C     -0.646298   -0.191308   -0.081216
C     -2.003620    0.001184    0.427968
C     -2.165824    1.001709    1.303984
C     -3.486181    1.642769    1.395808
C     -3.890717    2.529541    0.352435
O     -3.171574    2.814555   -0.667261
C     -5.171106    3.095782    0.520087
C     -5.997324    2.822612    1.616985
C     -5.549030    1.949343    2.605112
C     -4.292442    1.352902    2.505320
N     -6.403397    1.650088    3.756608
O     -5.980317    0.839244    4.595924
O     -7.503887    2.217255    3.830360
C      0.428845   -1.047127    0.626635
C      0.770343   -0.506651    2.016787
C     -0.021468   -2.508732    0.700329
C      1.592164   -0.881027   -0.318245
C      1.201933   -0.065253   -1.374953
C      2.073983    0.293166   -2.384581
C      3.379409   -0.211306   -2.324243
C      3.790004   -1.062434   -1.274261
C      5.162022   -1.578916   -1.179081
C      5.913776   -1.925997   -2.234650
C      7.269331   -2.448683   -2.016778
O      7.856310   -2.706972   -3.195024
O      7.825079   -2.638703   -0.952948
C      2.883307   -1.385744   -0.251840
H     -1.973569    0.933863   -2.140545
H     -0.665536    2.178183   -2.009081
H     -0.569656    0.836441   -3.194887
H     -2.842598   -0.393969   -0.137533
H     -1.357200    1.554348    1.769958
H     -5.535455    3.785905   -0.243271
H     -6.970758    3.301809    1.671672
H     -3.931870    0.671929    3.270638
H      1.039480    0.555642    1.980032
H     -0.077471   -0.607065    2.703238
H      1.615859   -1.044889    2.460198
H      0.770944   -3.153096    1.097792
H     -0.296868   -2.895564   -0.288251
H     -0.898709   -2.620466    1.347592
H      1.788763    0.950163   -3.199480
H      4.084616    0.080337   -3.101845
H      5.558793   -1.696693   -0.170690
H      5.574881   -1.857975   -3.260172
H      8.743524   -3.044764   -2.949907
H      3.184571   -2.022576    0.577361
