49
Conformer 90, Energy = 15.9786 kcal/mol
C     -0.859110    0.820036   -2.365690
N     -0.075300    0.198630   -1.295650
C     -0.235853    0.224864   -0.006112
C     -1.355676    0.807200    0.745071
C     -2.628437    0.629195    0.362394
C     -3.717120    0.934078    1.309082
C     -3.827920    0.205212    2.529167
O     -3.028479   -0.728241    2.881615
C     -4.911430    0.578476    3.352567
C     -5.827702    1.581018    3.016298
C     -5.678524    2.254571    1.808071
C     -4.628311    1.937682    0.945874
N     -6.627963    3.305263    1.434762
O     -7.549360    3.568299    2.221744
O     -6.456534    3.878877    0.346722
C      0.938428   -0.486406    0.720888
C      0.441747   -1.666607    1.558351
C      1.733423    0.505629    1.575450
C      1.758169   -0.962157   -0.448854
C      1.141959   -0.556083   -1.625528
C      1.659332   -0.859972   -2.872119
C      2.856277   -1.582199   -2.916450
C      3.502367   -1.983442   -1.729509
C      4.782027   -2.687378   -1.797555
C      5.986098   -2.099159   -1.875502
C      6.225702   -0.644955   -1.909595
O      7.547993   -0.412487   -1.949932
O      5.412727    0.258061   -1.906826
C      2.944295   -1.679312   -0.481068
H     -1.528435    1.577332   -1.951732
H     -1.434130    0.041461   -2.873553
H     -0.182230    1.318004   -3.066095
H     -1.145368    1.185717    1.744031
H     -2.942640    0.126143   -0.543018
H     -5.042666    0.051924    4.299864
H     -6.635804    1.805714    3.706268
H     -4.506092    2.460174    0.002031
H      1.274636   -2.264945    1.944970
H     -0.140524   -1.323660    2.419365
H     -0.201412   -2.333555    0.971873
H      2.045932    1.379030    0.990449
H      2.637369    0.044363    1.989439
H      1.137580    0.875726    2.416829
H      1.184305   -0.555675   -3.797767
H      3.302064   -1.818761   -3.881820
H      4.717113   -3.772836   -1.770048
H      6.878279   -2.716768   -1.912334
H      7.621777    0.564578   -1.962806
H      3.437420   -1.982661    0.439301
