49
Conformer 78, Energy = 14.0413 kcal/mol
C     -0.489178    1.768104   -1.923614
N      0.012102    0.679465   -1.081028
C     -0.566644    0.019778   -0.122554
C     -1.892332    0.269349    0.454013
C     -2.286283    1.503377    0.800597
C     -3.488603    1.678321    1.638605
C     -3.572224    1.067372    2.924324
O     -2.650991    0.344827    3.437862
C     -4.768016    1.319107    3.630912
C     -5.807188    2.113258    3.134394
C     -5.669518    2.696283    1.879197
C     -4.514034    2.488248    1.124992
N     -6.742850    3.534215    1.340183
O     -7.757381    3.703531    2.032543
O     -6.578108    4.029476    0.213209
C      0.342709   -1.124731    0.402264
C     -0.292593   -2.493832    0.143449
C      0.670763   -0.935414    1.884862
C      1.570210   -0.932655   -0.450081
C      1.358340    0.136574   -1.308870
C      2.325205    0.564007   -2.199614
C      3.540806   -0.131814   -2.221847
C      3.769894   -1.235398   -1.370805
C      5.048829   -1.957639   -1.357643
C      5.789674   -2.199248   -2.449743
C      7.048086   -2.946176   -2.320835
O      7.634044   -3.067425   -3.521673
O      7.534004   -3.406016   -1.306695
C      2.772120   -1.626930   -0.464412
H     -0.265336    1.544406   -2.970755
H     -1.573001    1.856145   -1.822163
H     -0.003659    2.697941   -1.616232
H     -2.461617   -0.593687    0.795473
H     -1.717071    2.407311    0.624195
H     -4.883552    0.873505    4.620954
H     -6.694059    2.258246    3.744293
H     -4.402403    2.941242    0.144577
H      0.397186   -3.309284    0.389359
H     -0.581036   -2.610119   -0.908187
H     -1.197071   -2.634917    0.745126
H     -0.216047   -1.082860    2.508852
H      1.049433    0.073564    2.087452
H      1.430841   -1.648725    2.223417
H      2.181962    1.410754   -2.861876
H      4.322083    0.205410   -2.902281
H      5.378318   -2.327264   -0.386234
H      5.508137   -1.884569   -3.446169
H      8.452841   -3.573637   -3.334514
H      2.933208   -2.461477    0.215635
