49
Conformer 21, Energy = -4.9702 kcal/mol
C     -1.532882    1.188445   -1.267066
N     -0.539320    0.919067   -0.228916
C     -0.623945    0.956709    1.068487
C     -1.814495    1.217954    1.912289
C     -3.044998    0.693747    1.793151
C     -3.612898   -0.254336    0.801011
C     -2.923603   -1.392385    0.289094
O     -1.728036   -1.719758    0.588253
C     -3.658042   -2.194313   -0.616308
C     -4.973297   -1.927671   -1.004122
C     -5.612786   -0.815641   -0.475309
C     -4.945782    0.017893    0.424473
N     -6.990475   -0.509089   -0.867738
O     -7.497873    0.533861   -0.426739
O     -7.567997   -1.297101   -1.631001
C      0.773841    0.728202    1.718290
C      0.777019   -0.423330    2.725226
C      1.262717    2.022760    2.384066
C      1.616137    0.418553    0.510888
C      0.819162    0.517951   -0.621222
C      1.312659    0.260373   -1.886809
C      2.662417   -0.096285   -1.999780
C      3.494347   -0.182832   -0.861962
C      4.902778   -0.589681   -0.958239
C      5.726893   -0.200126   -1.943216
C      7.138161   -0.600554   -2.030138
O      7.544708   -1.390578   -1.026136
O      7.891983   -0.256514   -2.922575
C      2.954497    0.064294    0.409943
H     -2.424251    1.642263   -0.831059
H     -1.109656    1.908782   -1.974447
H     -1.779358    0.260805   -1.788489
H     -1.621003    1.828207    2.790348
H     -3.765618    0.969092    2.564386
H     -3.173237   -3.083793   -1.025823
H     -5.465369   -2.601843   -1.699289
H     -5.455036    0.883597    0.842864
H      0.072103   -0.241412    3.543745
H      0.502003   -1.374712    2.259438
H      1.770103   -0.560451    3.168969
H      2.304692    1.936211    2.713380
H      0.659553    2.271832    3.263940
H      1.203622    2.876314    1.697858
H      0.689075    0.299342   -2.772942
H      3.056624   -0.333432   -2.986888
H      5.265565   -1.228939   -0.155060
H      5.405083    0.453184   -2.746029
H      8.485513   -1.570245   -1.232666
H      3.568703   -0.024419    1.302789
