49
Conformer 28, Energy = -0.9006 kcal/mol
C     -0.930358   -3.264069   -1.256757
N     -0.345696   -2.245950   -0.379382
C     -0.865174   -1.608406    0.626190
C     -2.217638   -1.835930    1.171117
C     -3.271202   -1.047308    0.915085
C     -3.297747    0.186150    0.098767
C     -2.900003    0.223530   -1.268578
O     -2.490773   -0.782896   -1.936116
C     -2.997799    1.488845   -1.891638
C     -3.458763    2.640138   -1.246837
C     -3.851115    2.550879    0.081849
C     -3.782354    1.332695    0.757848
N     -4.327831    3.743171    0.783331
O     -4.594899    4.748346    0.108273
O     -4.429168    3.684289    2.019135
C      0.186330   -0.693988    1.312375
C      0.444646   -1.174497    2.745533
C     -0.197071    0.784214    1.301344
C      1.393208   -0.937881    0.443150
C      1.043517   -1.821320   -0.570674
C      1.943419   -2.218135   -1.542545
C      3.240180   -1.695290   -1.478037
C      3.611148   -0.795573   -0.456700
C      4.985646   -0.288901   -0.422272
C      5.385245    0.982472   -0.584163
C      4.516591    2.143119   -0.844908
O      5.275225    3.237627   -1.023031
O      3.305655    2.188110   -0.902320
C      2.678685   -0.421699    0.521303
H     -1.981320   -3.426907   -1.005364
H     -0.386169   -4.200516   -1.100268
H     -0.832194   -2.952035   -2.299845
H     -2.352466   -2.733394    1.764957
H     -4.240388   -1.313897    1.332145
H     -2.706963    1.570003   -2.941182
H     -3.503703    3.573362   -1.800661
H     -4.092337    1.263332    1.797746
H      1.272137   -0.626580    3.210684
H      0.698038   -2.241499    2.772937
H     -0.441509   -1.035426    3.375414
H      0.614149    1.411508    1.688957
H     -1.075034    0.971143    1.926959
H     -0.420224    1.135561    0.288479
H      1.672045   -2.895927   -2.344182
H      3.963617   -1.979279   -2.240931
H      5.744519   -1.053946   -0.268436
H      6.446800    1.208365   -0.546311
H      4.621390    3.944787   -1.206399
H      2.947706    0.279605    1.306873
