49
Conformer  7, Energy = -5.7239 kcal/mol
C     -0.133683   -1.460791    3.161154
N     -0.030921   -1.260224    1.712838
C     -0.918073   -1.432609    0.779577
C     -2.277622   -1.964143    0.990816
C     -3.379511   -1.201902    1.046632
C     -3.487120    0.263882    0.864258
C     -2.735836    1.209437    1.620534
O     -1.897849    0.913666    2.534884
C     -2.982430    2.566396    1.308400
C     -3.899516    2.988764    0.341900
C     -4.623476    2.032779   -0.357836
C     -4.429021    0.675268   -0.100515
N     -5.589294    2.448677   -1.377227
O     -5.780907    3.663238   -1.537887
O     -6.156688    1.560554   -2.032627
C     -0.310502   -1.169279   -0.625026
C     -1.033022   -0.078993   -1.413122
C     -0.274516   -2.476338   -1.427620
C      1.085934   -0.733514   -0.259060
C      1.216630   -0.768712    1.123345
C      2.386458   -0.397840    1.758328
C      3.458766    0.014702    0.957109
C      3.355043    0.038659   -0.451379
C      4.457469    0.495549   -1.308957
C      5.756404    0.288825   -1.044680
C      6.774240    0.777348   -1.984102
O      8.001087    0.496865   -1.518248
O      6.592885    1.352832   -3.038784
C      2.144135   -0.328124   -1.060990
H      0.542682   -2.274624    3.439641
H      0.156375   -0.545041    3.683028
H     -1.153310   -1.742905    3.435419
H     -2.354645   -3.030773    1.173673
H     -4.334662   -1.684251    1.247764
H     -2.433697    3.330729    1.862951
H     -4.029957    4.053074    0.168740
H     -4.997303   -0.073489   -0.647603
H     -2.057385   -0.376703   -1.657776
H     -1.075566    0.862647   -0.855934
H     -0.524657    0.132376   -2.361292
H      0.266331   -2.352832   -2.372912
H     -1.286879   -2.821745   -1.666100
H      0.219220   -3.280066   -0.868000
H      2.486547   -0.396688    2.838184
H      4.375579    0.340154    1.446391
H      4.166284    1.016230   -2.221306
H      6.111995   -0.238206   -0.168985
H      8.601207    0.861401   -2.202345
H      2.032777   -0.294259   -2.142340
