49
Conformer  6, Energy = -5.7241 kcal/mol
C     -0.154329   -1.633051    3.073712
N      0.047063   -0.616719    2.037003
C     -0.698120    0.392430    1.699176
C     -1.946018    0.788897    2.378118
C     -3.172856    0.515038    1.911070
C     -3.539294   -0.164376    0.647155
C     -3.056538   -1.452601    0.275874
O     -2.267796   -2.167835    0.977452
C     -3.526441   -1.939785   -0.965722
C     -4.411851   -1.241459   -1.791548
C     -4.871223    0.002688   -1.380775
C     -4.447026    0.543575   -0.166524
N     -5.798333    0.755929   -2.228132
O     -6.196723    0.222480   -3.274243
O     -6.127021    1.893548   -1.856554
C     -0.020050    1.241826    0.590115
C     -0.857258    1.376606   -0.679835
C      0.339456    2.626433    1.144614
C      1.227303    0.435320    0.330110
C      1.229921   -0.667574    1.174605
C      2.243011   -1.606908    1.149834
C      3.289650   -1.410766    0.239826
C      3.317940   -0.285938   -0.614109
C      4.390932   -0.076406   -1.596167
C      5.673755   -0.415483   -1.398502
C      6.665424   -0.143350   -2.447236
O      7.872476   -0.586800   -2.063708
O      6.480024    0.399049   -3.518679
C      2.261619    0.638754   -0.573268
H     -0.095067   -2.630667    2.630438
H     -1.123179   -1.494580    3.560150
H      0.634587   -1.514577    3.822633
H     -1.836279    1.273980    3.342293
H     -4.033567    0.815799    2.506041
H     -3.188375   -2.925074   -1.294252
H     -4.725599   -1.692583   -2.728430
H     -4.808073    1.517527    0.155986
H     -0.309873    1.912117   -1.464491
H     -1.778387    1.936846   -0.491842
H     -1.130535    0.398996   -1.090403
H      0.934218    3.204516    0.428056
H      0.921557    2.551327    2.071232
H     -0.561470    3.206609    1.374234
H      2.237672   -2.484513    1.786865
H      4.077824   -2.160455    0.187829
H      4.095374    0.405300   -2.528274
H      6.037334   -0.876636   -0.489524
H      8.454879   -0.366834   -2.821053
H      2.249258    1.499381   -1.238236
