49
Conformer 12, Energy = -5.2770 kcal/mol
C     -0.671708   -3.364994    1.098193
N     -0.333088   -2.188277    0.292620
C     -1.085668   -1.450605   -0.467055
C     -2.511060   -1.703961   -0.748919
C     -3.520012   -1.046368   -0.159111
C     -3.441464    0.064413    0.817227
C     -2.708927   -0.007550    2.037506
O     -2.045898   -1.022056    2.433587
C     -2.762499    1.152633    2.844283
C     -3.481839    2.302691    2.507726
C     -4.195140    2.321719    1.316924
C     -4.185557    1.211036    0.472669
N     -4.953315    3.515825    0.938080
O     -5.036229    4.439240    1.761497
O     -5.463158    3.541815   -0.193182
C     -0.252085   -0.355631   -1.186236
C     -0.239693   -0.622475   -2.697035
C     -0.727163    1.067224   -0.900167
C      1.114316   -0.597101   -0.595109
C      1.033889   -1.662190    0.293698
C      2.129348   -2.101676    1.011669
C      3.345046   -1.436441    0.811774
C      3.454267   -0.363884   -0.100512
C      4.754189    0.307582   -0.237785
C      5.228009    0.791948   -1.396163
C      6.533653    1.453249   -1.529202
O      7.224882    1.533340   -0.383271
O      6.971874    1.894597   -2.576097
C      2.316370    0.066835   -0.801484
H     -0.361947   -3.205979    2.134373
H     -0.139653   -4.225470    0.681678
H     -1.745826   -3.561253    1.053212
H     -2.729462   -2.519941   -1.429644
H     -4.540788   -1.334701   -0.404911
H     -2.219969    1.146916    3.792139
H     -3.471669    3.149081    3.188303
H     -4.745754    1.226354   -0.459496
H     -1.236785   -0.485624   -3.130902
H      0.074424   -1.648756   -2.923117
H      0.446391    0.054377   -3.219149
H     -1.730954    1.239891   -1.300437
H     -0.747089    1.279360    0.173924
H     -0.065319    1.809771   -1.361544
H      2.069710   -2.917669    1.723376
H      4.218628   -1.759818    1.377714
H      5.346614    0.380950    0.672662
H      4.677109    0.717684   -2.326645
H      8.049740    1.997396   -0.637143
H      2.361262    0.916493   -1.477603
