37
Conformer 41, Energy = 0.0366 kcal/mol
S      0.772699   -0.891638   -0.010905
C      2.038164   -0.126940   -0.890673
C      1.656335    0.059977   -2.208691
C      0.340699   -0.416380   -2.483430
C     -0.264684   -0.951921   -1.367191
C     -1.635531   -1.554452   -1.253655
C     -2.758334   -0.522364   -1.405553
C     -2.846061    0.523317   -0.287081
C     -3.069563   -0.029406    1.124589
C     -4.309813   -0.907879    1.303953
C     -5.612804   -0.190385    0.988024
H      2.287372    0.519246   -2.959901
H     -0.135937   -0.362279   -3.454965
H     -1.742240   -2.298598   -2.054105
H     -1.751503   -2.109746   -0.316013
H     -2.640500    0.007792   -2.359531
H     -3.713776   -1.055243   -1.477691
H     -1.931232    1.128238   -0.281508
H     -3.656164    1.221143   -0.531505
H     -2.189666   -0.602264    1.438010
H     -3.135595    0.819287    1.817305
H     -4.230664   -1.811725    0.690288
H     -4.343555   -1.245644    2.346930
H     -6.464235   -0.835850    1.226626
H     -5.708576    0.727494    1.576563
H     -5.681255    0.069181   -0.072418
C      3.295122    0.232790   -0.261136
C      3.674857    0.048906    1.057539
S      4.563703    0.989823   -1.142429
C      5.598788    1.068566    0.214730
C      4.990688    0.526170    1.329469
C      6.926496    1.637301    0.153283
H      3.043135   -0.408952    1.809464
H      5.471860    0.474744    2.300051
O      7.727302    1.731982    1.073365
O      7.263835    2.095900   -1.072844
H      8.170632    2.439807   -0.943237
