37
Conformer 59, Energy = 1.1439 kcal/mol
S      1.120995   -0.072832    1.054776
C      2.173634   -0.393498   -0.264690
C      1.510882   -1.113458   -1.244063
C      0.155269   -1.397900   -0.906525
C     -0.196726   -0.878055    0.320365
C     -1.520736   -0.967011    1.022806
C     -2.353987    0.314690    0.914253
C     -2.805059    0.691174   -0.502559
C     -3.656594   -0.354598   -1.230009
C     -4.935405   -0.785957   -0.508404
C     -5.906941    0.357147   -0.259637
H      1.974771   -1.437595   -2.167343
H     -0.526110   -1.954998   -1.538234
H     -1.350036   -1.184883    2.085299
H     -2.087016   -1.821814    0.634996
H     -3.236014    0.210629    1.557219
H     -1.784587    1.158111    1.325327
H     -3.363602    1.633455   -0.446696
H     -1.924572    0.910153   -1.118714
H     -3.926253    0.048845   -2.214388
H     -3.051201   -1.246184   -1.428805
H     -5.438751   -1.541691   -1.123643
H     -4.692855   -1.274216    0.441619
H     -6.837689   -0.027816    0.169319
H     -5.495857    1.087578    0.443271
H     -6.152670    0.874010   -1.192654
C      3.549769    0.059461   -0.308443
C      4.336204    0.196962   -1.438990
S      4.442849    0.487775    1.095177
C      5.854944    0.857981    0.206384
C      5.653498    0.655703   -1.145115
C      7.074314    1.318333    0.832072
H      3.986773   -0.012346   -2.442740
H      6.421904    0.831741   -1.889930
O      8.123533    1.602849    0.270605
O      6.987563    1.425959    2.176531
H      7.875758    1.742295    2.437287
