37
Conformer 53, Energy = 0.6775 kcal/mol
S      1.084962   -1.328889    0.072016
C      2.194392   -0.287598   -0.731616
C      1.640788    0.177984   -1.912643
C      0.322946   -0.314238   -2.145797
C     -0.111972   -1.141600   -1.133268
C     -1.428896   -1.853243   -1.015653
C     -2.611335   -0.901163   -0.799210
C     -2.611434   -0.248218    0.584975
C     -3.731703    0.777597    0.795366
C     -5.149471    0.201369    0.742636
C     -5.819977    0.384430   -0.611486
H      2.151007    0.846773   -2.595272
H     -0.274665   -0.066438   -3.014973
H     -1.596075   -2.409497   -1.947291
H     -1.406507   -2.601614   -0.213851
H     -3.528305   -1.489691   -0.915281
H     -2.623669   -0.126784   -1.575677
H     -2.680863   -1.025716    1.355759
H     -1.659401    0.269759    0.748659
H     -3.620768    1.604995    0.084389
H     -3.582939    1.209852    1.793512
H     -5.152490   -0.857391    1.024742
H     -5.763583    0.725010    1.485856
H     -6.836556   -0.020959   -0.584389
H     -5.889651    1.445862   -0.871004
H     -5.277590   -0.125538   -1.410889
C      3.504301    0.003300   -0.179072
C      4.058466   -0.464577    1.000622
S      4.613409    1.044785   -0.982572
C      5.808374    0.869591    0.226704
C      5.375997    0.030206    1.233373
C      7.064511    1.566232    0.088917
H      3.549538   -1.137002    1.680987
H      5.976733   -0.219776    2.100466
O      7.438618    2.308637   -0.807627
O      7.888718    1.314105    1.132711
H      8.685090    1.839445    0.911604
