37
Conformer 34, Energy = -0.1191 kcal/mol
S      1.187951   -0.420282    0.244048
C      2.526648    0.063963   -0.723185
C      2.150561    0.138669   -2.054213
C      0.781406   -0.197243   -2.269545
C      0.134529   -0.521041   -1.097259
C     -1.299343   -0.925983   -0.910361
C     -2.197430    0.290749   -0.667716
C     -3.689850   -0.053496   -0.616122
C     -4.074137   -0.902518    0.598580
C     -5.566981   -1.238331    0.653689
C     -6.456297   -0.026802    0.887140
H      2.822247    0.422482   -2.855315
H      0.299072   -0.197695   -3.239751
H     -1.637483   -1.459550   -1.807718
H     -1.378373   -1.635673   -0.078919
H     -1.905197    0.796347    0.261332
H     -2.045108    1.019046   -1.475126
H     -4.246183    0.890328   -0.593456
H     -3.980347   -0.570825   -1.538394
H     -3.779079   -0.386623    1.520258
H     -3.522778   -1.849012    0.574243
H     -5.871067   -1.742447   -0.270991
H     -5.731119   -1.950574    1.471276
H     -7.495496   -0.344650    1.020073
H     -6.151349    0.517562    1.786406
H     -6.428464    0.662285    0.038247
C      3.828705    0.334355   -0.142358
C      4.204077    0.259777    1.188223
S      5.167210    0.817551   -1.108836
C      6.226012    0.924068    0.227978
C      5.573356    0.596567    1.399899
C      7.613028    1.310437    0.097784
H      3.532661   -0.024109    1.989910
H      6.060145    0.599050    2.369039
O      8.434278    1.410862    0.999044
O      7.984822    1.576324   -1.174448
H      8.929374    1.816433   -1.087733
