37
Conformer 39, Energy = -0.0310 kcal/mol
S      1.107669    0.175418   -1.492879
C      2.326348   -0.047366   -0.298109
C      1.802854   -0.712686    0.798252
C      0.420426   -1.031113    0.652978
C     -0.088599   -0.600975   -0.552654
C     -1.489871   -0.746519   -1.071405
C     -2.384601    0.400104   -0.592274
C     -3.802270    0.345706   -1.169522
C     -4.609798   -0.911620   -0.830789
C     -4.768580   -1.214408    0.660908
C     -5.477501   -0.111566    1.431364
H      2.378583   -0.968391    1.679513
H     -0.168044   -1.549125    1.400887
H     -1.888598   -1.707178   -0.724303
H     -1.489604   -0.787931   -2.167707
H     -1.937073    1.358375   -0.887204
H     -2.424906    0.414291    0.503528
H     -4.351497    1.231752   -0.829320
H     -3.742540    0.431625   -2.261947
H     -4.151543   -1.780689   -1.317496
H     -5.606509   -0.809431   -1.278670
H     -5.349423   -2.139040    0.764098
H     -3.792598   -1.411381    1.117605
H     -4.883700    0.806831    1.455360
H     -5.645046   -0.424937    2.466839
H     -6.450601    0.116354    0.985064
C      3.683583    0.426606   -0.495790
C      4.206474    1.091307   -1.591996
S      4.901893    0.204156    0.698108
C      6.103386    0.982071   -0.235025
C      5.588620    1.408627   -1.443198
C      7.464442    1.147068    0.223612
H      3.631208    1.346784   -2.473977
H      6.181129    1.927234   -2.188973
O      8.381021    1.688902   -0.378970
O      7.689274    0.629583    1.452091
H      8.635992    0.821560    1.607725
