37
Conformer 62, Energy = 1.7191 kcal/mol
S      0.778642    1.157082   -0.725550
C      2.107986    0.170754   -1.185443
C      1.703481   -0.785049   -2.101710
C      0.313436   -0.709607   -2.409303
C     -0.318946    0.301811   -1.718581
C     -1.765636    0.699469   -1.770519
C     -2.695796   -0.327136   -1.114308
C     -2.521394   -0.411031    0.407255
C     -3.533875   -1.351334    1.071899
C     -4.756067   -0.649855    1.671744
C     -5.640963    0.049972    0.654951
H      2.370026   -1.520551   -2.534652
H     -0.195842   -1.370606   -3.100416
H     -2.050982    0.803500   -2.825501
H     -1.923419    1.684737   -1.314671
H     -3.726442   -0.047017   -1.354446
H     -2.533256   -1.319056   -1.554504
H     -2.572123    0.587559    0.856648
H     -1.517735   -0.800073    0.617947
H     -3.853095   -2.135201    0.374834
H     -3.023967   -1.864507    1.897602
H     -4.431853    0.075093    2.427782
H     -5.358391   -1.400729    2.197473
H     -6.551833    0.416183    1.139689
H     -5.936489   -0.632558   -0.147826
H     -5.134846    0.913959    0.214762
C      3.450612    0.364457   -0.675653
C      4.625564   -0.074274   -1.261289
S      3.785872    1.179472    0.799312
C      5.474369    0.956023    0.651531
C      5.784748    0.266259   -0.503633
C      6.350796    1.472419    1.674979
H      4.663177   -0.611494   -2.201192
H      6.799087    0.017101   -0.793880
O      6.068557    2.081849    2.696558
O      7.648730    1.206325    1.396332
H      8.117867    1.606056    2.157502
