37
Conformer 10, Energy = -1.7523 kcal/mol
S      1.229788   -0.399821   -0.887818
C      2.480118    0.605971   -0.265443
C      1.932910    1.702993    0.379279
C      0.507036    1.711472    0.358746
C     -0.010270    0.618696   -0.301968
C     -1.453017    0.275476   -0.536228
C     -2.048683   -0.480255    0.655212
C     -3.491098   -0.941495    0.421041
C     -4.479454    0.218376    0.273325
C     -5.941968   -0.233733    0.254746
C     -6.294668   -1.096182   -0.947124
H      2.521463    2.479866    0.852311
H     -0.104784    2.484117    0.809228
H     -2.005978    1.206697   -0.707151
H     -1.560664   -0.321993   -1.450073
H     -1.437760   -1.367410    0.867090
H     -2.005172    0.145273    1.555977
H     -3.522879   -1.581815   -0.468023
H     -3.793616   -1.563377    1.272900
H     -4.346515    0.912820    1.111717
H     -4.267766    0.780704   -0.643350
H     -6.580720    0.657407    0.244632
H     -6.175633   -0.779631    1.176403
H     -7.369313   -1.304626   -0.957134
H     -6.039129   -0.590345   -1.883642
H     -5.771509   -2.056645   -0.918606
C      3.882302    0.275365   -0.438697
C      4.430941   -0.787044   -1.137573
S      5.129910    1.235408    0.256253
C      6.376057    0.247153   -0.370071
C      5.856964   -0.803745   -1.099245
C      7.752466    0.582626   -0.095822
H      3.843741   -1.530931   -1.663159
H      6.471315   -1.552830   -1.586231
O      8.202789    1.518646    0.549288
O      8.601972   -0.305322   -0.663603
H      9.480826    0.038132   -0.401463
