37
Conformer 49, Energy = 0.5620 kcal/mol
S      1.204535    1.083112   -0.467402
C      2.374010   -0.172868   -0.557296
C      1.752231   -1.396583   -0.739812
C      0.331062   -1.297558   -0.796483
C     -0.105194    0.002209   -0.658166
C     -1.517375    0.511802   -0.663219
C     -2.142024    0.440321    0.732919
C     -3.548439    1.043433    0.801892
C     -4.596559    0.398438   -0.110007
C     -4.811202   -1.089802    0.166460
C     -5.940156   -1.654165   -0.682495
H      2.287208   -2.334542   -0.821985
H     -0.335706   -2.141213   -0.929271
H     -1.550712    1.543051   -1.036016
H     -2.099796   -0.093015   -1.368476
H     -2.161184   -0.598294    1.084642
H     -1.507138    0.984367    1.444641
H     -3.488063    2.111530    0.558217
H     -3.898758    0.984978    1.840046
H     -4.322864    0.546173   -1.161016
H     -5.545210    0.930413    0.036450
H     -3.897040   -1.653087   -0.049407
H     -5.047296   -1.242080    1.225881
H     -6.884799   -1.143709   -0.469425
H     -5.721657   -1.542689   -1.749363
H     -6.075552   -2.719832   -0.472804
C      3.800810    0.065942   -0.468550
C      4.806126   -0.775383   -0.912345
S      4.474401    1.474248    0.248423
C      6.083022    0.971940   -0.036398
C      6.111063   -0.256453   -0.667550
C      7.229343    1.763248    0.350973
H      4.622772   -1.723825   -1.402521
H      7.032174   -0.758919   -0.941903
O      8.407191    1.476694    0.184788
O      6.905815    2.928396    0.954662
H      7.774966    3.333722    1.147639
