37
Conformer 28, Energy = -0.5684 kcal/mol
S      0.870296    1.678660   -0.362767
C      2.063042    0.555442    0.163063
C      1.469993   -0.464460    0.888365
C      0.055944   -0.321015    1.003714
C     -0.409365    0.802652    0.356316
C     -1.823266    1.297022    0.253131
C     -2.479974    0.983784   -1.095591
C     -2.665459   -0.505755   -1.411537
C     -3.497516   -1.304326   -0.403442
C     -4.925597   -0.782448   -0.243298
C     -5.742526   -1.676842    0.676787
H      2.017865   -1.289367    1.327484
H     -0.584347   -1.015248    1.534552
H     -1.835849    2.384408    0.404636
H     -2.420963    0.879851    1.071996
H     -3.455570    1.483113   -1.131167
H     -1.888254    1.431561   -1.904305
H     -3.137652   -0.588407   -2.398838
H     -1.682939   -0.982875   -1.508917
H     -3.534196   -2.346155   -0.746428
H     -2.997818   -1.321460    0.571283
H     -5.415803   -0.730367   -1.222214
H     -4.916421    0.230677    0.172580
H     -5.293549   -1.727724    1.673891
H     -6.759144   -1.285054    0.781346
H     -5.810197   -2.693841    0.277475
C      3.468460    0.732166   -0.152076
C      4.061460    1.754311   -0.873520
S      4.660718   -0.392095    0.371090
C      5.943190    0.473436   -0.353888
C      5.474991    1.606695   -0.988814
C      7.319380    0.036115   -0.283916
H      3.514567    2.582799   -1.307811
H      6.121866    2.300658   -1.514330
O      8.292211    0.594154   -0.772790
O      7.488460   -1.114344    0.405545
H      8.453959   -1.265719    0.358117
