37
Conformer 58, Energy = 1.0087 kcal/mol
S      1.203434    0.425882   -0.614675
C      2.585011   -0.593135   -0.691851
C      2.220133   -1.868547   -1.088771
C      0.819219   -2.002596   -1.317642
C      0.140826   -0.824484   -1.092804
C     -1.331825   -0.561658   -1.223685
C     -2.068074   -0.834874    0.091292
C     -3.591746   -0.722533   -0.028200
C     -4.074479    0.704583   -0.300831
C     -5.597492    0.817005   -0.411186
C     -6.325740    0.537512    0.894464
H      2.922862   -2.684243   -1.205122
H      0.336062   -2.921029   -1.629011
H     -1.496090    0.471549   -1.550329
H     -1.738576   -1.205796   -2.013569
H     -1.710121   -0.153073    0.873071
H     -1.828774   -1.849741    0.435254
H     -3.949441   -1.393501   -0.818427
H     -4.024434   -1.081611    0.912368
H     -3.647072    1.062907   -1.243892
H     -3.712432    1.375737    0.487314
H     -5.967025    0.138235   -1.188586
H     -5.846413    1.834754   -0.735077
H     -7.396115    0.734963    0.776375
H     -5.950392    1.177636    1.699051
H     -6.215101   -0.506421    1.201379
C      3.926316   -0.132466   -0.392932
C      5.110085   -0.726957   -0.793820
S      4.250499    1.261083    0.557880
C      5.944918    1.077812    0.429601
C      6.264379   -0.033757   -0.325678
C      6.879153    1.991590    1.048059
H      5.156700   -1.619182   -1.406350
H      7.285792   -0.333814   -0.532724
O      8.100440    1.931141    1.004937
O      6.285405    2.995489    1.730942
H      7.040108    3.511536    2.078897
