37
Conformer 37, Energy = -0.0820 kcal/mol
S      0.634177    0.735337   -0.036984
C      2.142264    0.486049   -0.827964
C      1.934803    0.166304   -2.159663
C      0.555107    0.127271   -2.518469
C     -0.267937    0.416397   -1.452465
C     -1.767906    0.474534   -1.427373
C     -2.374911   -0.888507   -1.083136
C     -3.904493   -0.908847   -1.159912
C     -4.629801    0.059294   -0.219451
C     -4.294049   -0.084872    1.266665
C     -4.627000   -1.456215    1.833202
H      2.733955   -0.034933   -2.862754
H      0.189773   -0.104349   -3.511858
H     -2.128391    0.799121   -2.411734
H     -2.097254    1.235164   -0.710002
H     -2.044888   -1.209680   -0.088043
H     -1.991510   -1.642927   -1.782927
H     -4.249729   -1.931064   -0.964002
H     -4.209991   -0.681688   -2.189176
H     -4.420731    1.090738   -0.526950
H     -5.710370   -0.078860   -0.352705
H     -4.864771    0.668791    1.822756
H     -3.236197    0.137784    1.443548
H     -5.676747   -1.710279    1.655609
H     -4.001863   -2.236495    1.389366
H     -4.454059   -1.467989    2.914141
C      3.403685    0.614121   -0.122117
C      3.610454    0.932477    1.209353
S      4.911351    0.367259   -0.912772
C      5.820507    0.680576    0.499583
C      4.990857    0.970490    1.564593
C      7.265281    0.635675    0.525234
H      2.811448    1.132913    1.913277
H      5.361026    1.200315    2.557747
O      7.988758    0.845862    1.489188
O      7.819463    0.324183   -0.667811
H      8.779691    0.336054   -0.480270
