37
Conformer 27, Energy = -0.5991 kcal/mol
S      1.535724   -0.193613    0.516028
C      2.519277    1.129568    0.043278
C      1.787451    2.304325    0.057258
C      0.437450    2.112826    0.473631
C      0.163585    0.792499    0.758333
C     -1.128090    0.194762    1.232779
C     -2.061434   -0.134978    0.063418
C     -3.367237   -0.758659    0.560476
C     -4.352574   -0.981317   -0.588374
C     -5.633957   -1.653932   -0.096671
C     -6.655914   -1.795585   -1.214439
H      2.202424    3.269253   -0.202351
H     -0.292811    2.907100    0.563655
H     -0.937263   -0.706051    1.829712
H     -1.623289    0.910830    1.903507
H     -2.280727    0.778107   -0.504360
H     -1.565943   -0.827266   -0.630071
H     -3.828598   -0.101745    1.311594
H     -3.149822   -1.714245    1.056202
H     -3.885517   -1.602657   -1.363079
H     -4.597489   -0.017290   -1.050947
H     -5.398036   -2.646124    0.303311
H     -6.074582   -1.071748    0.720251
H     -6.253857   -2.390205   -2.040038
H     -7.558040   -2.292184   -0.845032
H     -6.947215   -0.817003   -1.604523
C      3.910403    0.985575   -0.329645
C      4.613129    1.787499   -1.210311
S      4.931558   -0.229925    0.324384
C      6.295068    0.303445   -0.558699
C      5.977175    1.395027   -1.344443
C      7.588013   -0.337427   -0.462391
H      4.171282    2.618764   -1.746699
H      6.697230    1.889652   -1.987252
O      8.605501   -0.027223   -1.068352
O      7.617077   -1.380296    0.401543
H      8.540049   -1.699758    0.344046
