37
Conformer 55, Energy = 0.8091 kcal/mol
S      1.317242   -0.110573    0.488634
C      2.571122   -0.396420   -0.651207
C      2.045710   -0.908388   -1.825598
C      0.627989   -1.054361   -1.785784
C      0.097818   -0.652446   -0.579047
C     -1.341631   -0.651939   -0.152164
C     -2.051146    0.635997   -0.580465
C     -3.493873    0.730905   -0.073231
C     -4.415984   -0.335363   -0.670359
C     -5.892961   -0.110355   -0.336229
C     -6.204554   -0.235057    1.147174
H      2.646227   -1.163669   -2.689851
H      0.029355   -1.433306   -2.605520
H     -1.835958   -1.521721   -0.601037
H     -1.417600   -0.777809    0.935037
H     -1.498049    1.502958   -0.196416
H     -2.039721    0.724420   -1.674337
H     -3.881158    1.724769   -0.329323
H     -3.494427    0.661703    1.020555
H     -4.118215   -1.330691   -0.321540
H     -4.307613   -0.334523   -1.761894
H     -6.210824    0.875829   -0.694089
H     -6.489088   -0.851997   -0.881277
H     -7.284121   -0.157823    1.311764
H     -5.870461   -1.200827    1.539239
H     -5.724052    0.559079    1.726050
C      3.969795   -0.140196   -0.370607
C      5.056174   -0.685543   -1.032287
S      4.498966    0.936805    0.858684
C      6.152831    0.672950    0.517787
C      6.304496   -0.222621   -0.522903
C      7.215626    1.324758    1.249832
H      4.969375   -1.396251   -1.845177
H      7.273215   -0.531582   -0.900149
O      8.418376    1.191541    1.068994
O      6.775821    2.155251    2.221187
H      7.601299    2.506493    2.611275
