37
Conformer 23, Energy = -1.0563 kcal/mol
S      1.188056    0.544745    1.077809
C      2.369892    0.865020   -0.132053
C      1.799180    1.565262   -1.182480
C      0.410818    1.829665   -0.991151
C     -0.055722    1.323123    0.202378
C     -1.447664    1.393305    0.758562
C     -2.298732    0.207815    0.292492
C     -3.721453    0.295715    0.849532
C     -4.584038   -0.923479    0.510836
C     -4.876431   -1.065916   -0.983207
C     -5.823882   -2.225027   -1.253948
H      2.344684    1.881352   -2.063622
H     -0.211549    2.363154   -1.700000
H     -1.914630    2.331880    0.434037
H     -1.418215    1.425205    1.854953
H     -2.324727    0.188681   -0.803377
H     -1.836223   -0.733068    0.616101
H     -3.671922    0.384461    1.941554
H     -4.209251    1.205707    0.480157
H     -5.532876   -0.831803    1.053770
H     -4.095908   -1.833187    0.881840
H     -5.321724   -0.140790   -1.366154
H     -3.947866   -1.236848   -1.538565
H     -6.784034   -2.073133   -0.750576
H     -6.014867   -2.315999   -2.328173
H     -5.397063   -3.170367   -0.903598
C      3.745830    0.426704    0.011754
C      4.309011   -0.297293    1.048976
S      4.936437    0.778812   -1.179084
C      6.179702   -0.018927   -0.320554
C      5.698649   -0.553713    0.858480
C      7.538922   -0.098323   -0.807358
H      3.757583   -0.636563    1.917941
H      6.320671   -1.103973    1.556125
O      8.482159   -0.653746   -0.260890
O      7.728282    0.523251   -1.993002
H      8.678899    0.378298   -2.173781
