37
Conformer 21, Energy = -1.0837 kcal/mol
S      1.251224    0.020382    0.747121
C      2.510385    0.815834   -0.115292
C      1.996311    1.881779   -0.834969
C      0.587553    2.036944   -0.676224
C      0.050679    1.087145    0.164675
C     -1.380706    0.922350    0.582587
C     -2.161695    0.060827   -0.413323
C     -3.621927   -0.097431    0.017300
C     -4.405660   -0.950508   -0.982643
C     -5.894101   -1.062872   -0.646749
C     -6.170133   -1.819727    0.643075
H      2.596436    2.533055   -1.458850
H      0.001451    2.810420   -1.157852
H     -1.437635    0.481039    1.585574
H     -1.846106    1.913741    0.655556
H     -1.695723   -0.929095   -0.497801
H     -2.119854    0.516535   -1.410845
H     -4.088872    0.891394    0.101174
H     -3.654026   -0.558263    1.010934
H     -4.313030   -0.506631   -1.981679
H     -3.965234   -1.952936   -1.042089
H     -6.339469   -0.063503   -0.585317
H     -6.397465   -1.583614   -1.469840
H     -7.248656   -1.953296    0.775894
H     -5.794948   -1.275917    1.515062
H     -5.705563   -2.810471    0.625740
C      3.887814    0.366896   -0.039372
C      4.383863   -0.769075    0.577009
S      5.170966    1.261147   -0.756301
C      6.364569    0.145257   -0.256093
C      5.798539   -0.897006    0.451810
C      7.768058    0.313439   -0.559118
H      3.766494   -1.491949    1.097367
H      6.377595   -1.718410    0.860401
O      8.683105   -0.431143   -0.234852
O      8.037521    1.425210   -1.279479
H      9.008241    1.388452   -1.396868
