37
Conformer 67, Energy = 2.3627 kcal/mol
S      0.723785   -0.244286   -0.486711
C      2.032346    0.873650   -0.493597
C      1.550723    2.170669   -0.560681
C      0.126888    2.238410   -0.604573
C     -0.454527    0.990228   -0.568098
C     -1.915595    0.645425   -0.595170
C     -2.506961    0.603230    0.817406
C     -4.008874    0.295760    0.837093
C     -4.355511   -1.174595    1.098469
C     -3.935856   -2.172883    0.020261
C     -4.620774   -1.940956   -1.317626
H      2.184729    3.048848   -0.578396
H     -0.438274    3.161254   -0.658294
H     -2.446179    1.399458   -1.190718
H     -2.061583   -0.308432   -1.110805
H     -2.357871    1.589280    1.278129
H     -1.961425   -0.109997    1.447414
H     -4.450977    0.871793    1.660973
H     -4.497116    0.657006   -0.074598
H     -5.440947   -1.250352    1.242256
H     -3.902204   -1.480445    2.049862
H     -4.195203   -3.180689    0.367463
H     -2.848869   -2.166261   -0.107554
H     -5.709778   -1.961954   -1.208405
H     -4.338399   -0.980494   -1.757207
H     -4.337412   -2.726631   -2.025341
C      3.413210    0.431362   -0.435285
C      3.894076   -0.865221   -0.367780
S      4.721493    1.548261   -0.443301
C      5.905908    0.319686   -0.358199
C      5.317848   -0.929161   -0.323762
C      7.323606    0.601293   -0.328609
H      3.260378   -1.743971   -0.349897
H      5.887620   -1.850345   -0.269181
O      8.232638   -0.215317   -0.268488
O      7.615579    1.920437   -0.374556
H      8.593505    1.935938   -0.346772
