37
Conformer 73, Energy = 4.9159 kcal/mol
S      0.944085   -0.287977   -1.419315
C      2.086988   -0.016535   -0.165583
C      1.521182   -0.289557    1.068149
C      0.165138   -0.719804    0.976970
C     -0.284940   -0.753643   -0.325381
C     -1.641690   -1.158124   -0.829691
C     -2.539749    0.032995   -1.186485
C     -3.013636    0.872023    0.006240
C     -4.394843    0.506762    0.565511
C     -4.481868   -0.844730    1.276189
C     -5.030036   -1.952642    0.388654
H      2.054637   -0.197487    2.006026
H     -0.449147   -0.987266    1.828525
H     -1.518313   -1.783617   -1.723486
H     -2.124637   -1.796709   -0.083809
H     -1.990916    0.693461   -1.870453
H     -3.407953   -0.325313   -1.752077
H     -3.083392    1.913034   -0.337092
H     -2.275564    0.875981    0.814803
H     -4.649066    1.281742    1.300928
H     -5.152015    0.581700   -0.224236
H     -5.165732   -0.742833    2.128300
H     -3.511276   -1.132346    1.693877
H     -5.079030   -2.892222    0.948266
H     -6.042813   -1.712443    0.048731
H     -4.408542   -2.119260   -0.493710
C      3.437620    0.447791   -0.412192
C      4.277625    1.060843    0.501441
S      4.227084    0.277500   -1.928813
C      5.664361    1.018170   -1.373595
C      5.551530    1.389910   -0.048643
C      6.778147    1.172774   -2.277925
H      3.995352    1.277395    1.524596
H      6.347353    1.877703    0.502654
O      6.871336    0.840035   -3.450651
O      7.827680    1.777036   -1.672590
H      8.495040    1.815653   -2.388407
