37
Conformer 26, Energy = -0.7596 kcal/mol
S      0.480549    0.490869   -0.902403
C      1.814558    1.241620   -0.122759
C      1.391359    2.347094    0.595242
C     -0.013461    2.570069    0.499243
C     -0.640120    1.621894   -0.280934
C     -2.098493    1.516502   -0.623094
C     -2.971053    1.144856    0.580672
C     -2.735989   -0.256750    1.157527
C     -2.952127   -1.423112    0.188248
C     -4.371466   -1.491814   -0.375807
C     -4.566544   -2.731304   -1.235766
H      2.057662    2.984317    1.163247
H     -0.536384    3.386291    0.983253
H     -2.427140    2.495539   -0.996400
H     -2.266366    0.814370   -1.447614
H     -4.024100    1.244204    0.291855
H     -2.813635    1.875067    1.385119
H     -1.717330   -0.320038    1.558532
H     -3.405390   -0.387925    2.017317
H     -2.736583   -2.354189    0.727724
H     -2.229800   -1.372546   -0.633600
H     -4.581815   -0.607087   -0.986108
H     -5.098716   -1.504983    0.444073
H     -4.403280   -3.643418   -0.652921
H     -3.871939   -2.734554   -2.081878
H     -5.586076   -2.760318   -1.632822
C      3.171941    0.742743   -0.219767
C      4.215094    1.018965    0.647272
S      3.705682   -0.287621   -1.487070
C      5.302177   -0.367809   -0.881021
C      5.434174    0.381835    0.270928
C      6.288383   -1.154786   -1.581232
H      4.115537    1.645444    1.525345
H      6.364182    0.469179    0.821076
O      6.164439   -1.815854   -2.602169
O      7.491885   -1.105156   -0.963004
H      8.050185   -1.671596   -1.534581
