37
Conformer 42, Energy = 0.0606 kcal/mol
S      0.991357   -1.176102   -0.777681
C      1.827658    0.227972   -1.308048
C      1.170178    0.801381   -2.383183
C     -0.005066    0.089290   -2.762950
C     -0.230135   -1.009603   -1.961963
C     -1.352363   -2.003781   -2.041730
C     -2.704119   -1.417131   -1.621268
C     -2.781926   -1.094457   -0.124884
C     -4.176645   -0.594705    0.260637
C     -4.338957   -0.351344    1.762666
C     -3.469104    0.777980    2.293034
H      1.515881    1.693035   -2.891253
H     -0.653710    0.374501   -3.582617
H     -1.134845   -2.896797   -1.442881
H     -1.429382   -2.346176   -3.081902
H     -2.924245   -0.514188   -2.204315
H     -3.483743   -2.149089   -1.867118
H     -2.539509   -1.991525    0.457301
H     -2.038040   -0.330864    0.124119
H     -4.403860    0.327557   -0.287891
H     -4.922412   -1.337796   -0.047914
H     -5.388666   -0.105010    1.962472
H     -4.118944   -1.271778    2.315876
H     -3.702843    0.968992    3.345387
H     -2.405743    0.528995    2.231092
H     -3.642054    1.703223    1.734443
C      3.038955    0.714014   -0.677583
C      3.556519    1.994637   -0.765288
S      4.056078   -0.275305    0.290918
C      5.165991    0.988468    0.594104
C      4.771422    2.152396   -0.036457
C      6.347083    0.812903    1.409252
H      3.085034    2.796248   -1.320747
H      5.333429    3.077852    0.025709
O      7.187706    1.661833    1.673314
O      6.485010   -0.437623    1.903055
H      7.314009   -0.388006    2.420019
