37
Conformer 51, Energy = 0.5813 kcal/mol
S      0.946600    0.723759   -0.934600
C      2.314195   -0.302673   -1.105397
C      1.961115   -1.468438   -1.763930
C      0.579807   -1.515180   -2.114213
C     -0.095511   -0.381387   -1.717817
C     -1.548731   -0.055701   -1.900586
C     -2.393780   -0.587331   -0.739108
C     -3.874675   -0.257299   -0.936913
C     -4.782975   -0.862451    0.137868
C     -4.500553   -0.417853    1.574984
C     -4.622309    1.083537    1.782514
H      2.658049   -2.267796   -1.983103
H      0.107632   -2.343372   -2.629060
H     -1.687688    1.028236   -1.999456
H     -1.896807   -0.498853   -2.842401
H     -2.267575   -1.674072   -0.654216
H     -2.035334   -0.151214    0.200628
H     -4.011600    0.829480   -0.976303
H     -4.200315   -0.643418   -1.911138
H     -5.822895   -0.615957   -0.110665
H     -4.707371   -1.956052    0.092107
H     -3.505834   -0.751679    1.889710
H     -5.216900   -0.919896    2.236694
H     -5.600164    1.448040    1.452457
H     -3.846416    1.627938    1.236277
H     -4.511207    1.326007    2.844293
C      3.635663    0.053093   -0.628158
C      4.837373   -0.488793   -1.049670
S      3.907540    1.230077    0.593268
C      5.603850    1.024855    0.554169
C      5.963034    0.068430   -0.375528
C      6.502009    1.776382    1.401986
H      4.916955   -1.249132   -1.817124
H      6.992593   -0.216626   -0.562446
O      7.721985    1.689383    1.435854
O      5.873248    2.648980    2.220466
H      6.606992    3.066976    2.714280
