37
Conformer 32, Energy = -0.3109 kcal/mol
S      1.255698    0.949035   -0.046617
C      2.589208   -0.093323    0.250308
C      2.153517   -1.286202    0.802182
C      0.739973   -1.334472    0.982196
C      0.122215   -0.178139    0.557760
C     -1.341997    0.154085    0.581133
C     -2.052506   -0.364696   -0.672596
C     -3.525169    0.051149   -0.755229
C     -4.398207   -0.590934    0.326177
C     -5.870939   -0.181832    0.236161
C     -6.572514   -0.699471   -1.010044
H      2.816654   -2.096560    1.078306
H      0.205759   -2.178297    1.402296
H     -1.486171    1.237829    0.672175
H     -1.783170   -0.294776    1.478801
H     -1.975985   -1.458385   -0.722273
H     -1.541555    0.019989   -1.564876
H     -3.602737    1.143419   -0.695535
H     -3.895603   -0.239223   -1.744813
H     -4.032769   -0.295764    1.316040
H     -4.315846   -1.683045    0.269680
H     -6.393540   -0.575799    1.116137
H     -5.958818    0.910015    0.278419
H     -6.469329   -1.785654   -1.097024
H     -7.640646   -0.463621   -0.964173
H     -6.172066   -0.239097   -1.917751
C      3.958092    0.262600   -0.066079
C      5.017087   -0.611442   -0.241379
S      4.486380    1.886665   -0.255104
C      6.101805    1.426625   -0.573541
C      6.244014    0.053794   -0.534361
C      7.091270    2.444157   -0.833970
H      4.923651   -1.688481   -0.173044
H      7.186636   -0.452298   -0.709122
O      6.958194    3.659041   -0.866124
O      8.310310    1.902252   -1.064981
H      8.869104    2.690861   -1.223410
