37
Conformer 56, Energy = 0.8124 kcal/mol
S      1.289406    0.560389    0.200641
C      2.556655   -0.014912   -0.807602
C      2.035891   -0.570816   -1.963992
C      0.612169   -0.516458   -2.017524
C      0.072171    0.075646   -0.896560
C     -1.375744    0.317054   -0.581169
C     -2.011602   -0.901440    0.094505
C     -3.460086   -0.663842    0.534129
C     -4.417494   -0.432613   -0.637965
C     -5.889670   -0.411703   -0.218487
C     -6.242587    0.750642    0.696670
H      2.645107   -0.995353   -2.752226
H      0.016621   -0.894659   -2.839836
H     -1.900102    0.545219   -1.516736
H     -1.484795    1.200641    0.059855
H     -1.426993   -1.173313    0.982921
H     -1.969171   -1.767771   -0.577949
H     -3.490544    0.189517    1.221176
H     -3.792931   -1.541410    1.101956
H     -4.282805   -1.232914   -1.375853
H     -4.176303    0.509777   -1.142606
H     -6.507227   -0.343844   -1.122154
H     -6.151330   -1.355747    0.273359
H     -7.320929    0.766076    0.884932
H     -5.964309    1.706982    0.242727
H     -5.739074    0.666467    1.664119
C      3.957963    0.075463   -0.448111
C      4.994183   -0.674396   -0.976769
S      4.559153    1.185493    0.717105
C      6.176481    0.668152    0.523331
C      6.262361   -0.337367   -0.419824
C      7.274691    1.238779    1.270693
H      4.857104   -1.442723   -1.727904
H      7.198536   -0.810136   -0.695979
O      8.455205    0.927061    1.191169
O      6.899073    2.212485    2.129472
H      7.740929    2.485574    2.546212
