37
Conformer 13, Energy = -1.4670 kcal/mol
S      1.096175    1.213441    0.225339
C      2.266672    0.244083   -0.582523
C      1.644443   -0.596929   -1.490276
C      0.226785   -0.444196   -1.515217
C     -0.209201    0.511546   -0.624036
C     -1.618282    0.956061   -0.358216
C     -2.302378    0.055268    0.673968
C     -3.710336    0.525533    1.051400
C     -4.719664    0.591354   -0.099578
C     -4.923308   -0.711233   -0.876754
C     -5.430100   -1.858051   -0.016333
H      2.173810   -1.301760   -2.120008
H     -0.436684   -1.012244   -2.156571
H     -2.171852    0.933929   -1.304508
H     -1.632584    1.997577   -0.013824
H     -1.698715    0.028344    1.590757
H     -2.336266   -0.978298    0.308554
H     -3.640307    1.522779    1.504303
H     -4.099217   -0.133556    1.836955
H     -4.418210    1.375536   -0.804079
H     -5.685618    0.913002    0.310182
H     -5.653850   -0.525381   -1.673548
H     -3.994183   -1.009389   -1.374470
H     -6.351158   -1.580093    0.505770
H     -4.687513   -2.160237    0.728057
H     -5.645601   -2.730049   -0.642182
C      3.683632    0.358731   -0.291267
C      4.306699    1.211359    0.604563
S      4.851840   -0.625767   -1.082856
C      6.162035    0.078258   -0.240956
C      5.723906    1.051796    0.633792
C      7.504251   -0.380126   -0.506288
H      3.778492    1.928001    1.222261
H      6.389038    1.626146    1.268632
O      7.882279   -1.248187   -1.279953
O      8.413689    0.288788    0.240818
H      9.261279   -0.116038   -0.036185
