37
Conformer 63, Energy = 1.9054 kcal/mol
S      0.899788    1.403651   -0.379139
C      2.102477    0.366550   -1.034598
C      1.558228   -0.436575   -2.022325
C      0.169374   -0.195222   -2.235229
C     -0.324951    0.780052   -1.395844
C     -1.725066    1.316688   -1.316187
C     -2.733801    0.292042   -0.783272
C     -2.550837   -0.013082    0.705257
C     -3.487398   -1.101821    1.242905
C     -4.976822   -0.749197    1.196563
C     -5.692493   -1.331900   -0.013814
H      2.128561   -1.165817   -2.584097
H     -0.435453   -0.716018   -2.967951
H     -2.031009    1.612153   -2.328314
H     -1.768048    2.227849   -0.706785
H     -2.675320   -0.636904   -1.363238
H     -3.734877    0.708807   -0.940823
H     -2.690771    0.906587    1.286683
H     -1.523006   -0.346083    0.890016
H     -3.214496   -1.264709    2.293739
H     -3.295293   -2.050007    0.726750
H     -5.123606    0.335952    1.235007
H     -5.458076   -1.162005    2.091941
H     -6.755357   -1.071445    0.017729
H     -5.615596   -2.424071   -0.022946
H     -5.283382   -0.954967   -0.953942
C      3.477110    0.358483   -0.575273
C      4.394640   -0.664861   -0.739862
S      4.198071    1.679474    0.253963
C      5.708662    0.891784    0.396272
C      5.671512   -0.361492   -0.181937
C      6.799835    1.563952    1.059421
H      4.165891   -1.602306   -1.232086
H      6.522528   -1.032699   -0.203364
O      6.825757    2.675114    1.568670
O      7.914856    0.796263    1.080968
H      8.558367    1.365779    1.550863
