37
Conformer  4, Energy = -2.4607 kcal/mol
S      1.142340   -0.460743   -1.258951
C      2.440457   -0.662347   -0.148460
C      2.069775   -1.524376    0.870215
C      0.737266   -2.012635    0.731459
C      0.112306   -1.509878   -0.388636
C     -1.279402   -1.787057   -0.876091
C     -2.303595   -0.864212   -0.208905
C     -3.718829   -1.154701   -0.713831
C     -4.802224   -0.352575    0.012978
C     -4.712061    1.154176   -0.231940
C     -5.874033    1.890290    0.418219
H      2.722444   -1.806613    1.687404
H      0.264868   -2.699624    1.423392
H     -1.332226   -1.679090   -1.966641
H     -1.529680   -2.833411   -0.657334
H     -2.039800    0.180451   -0.412283
H     -2.267893   -0.995117    0.880073
H     -3.774943   -0.956753   -1.791025
H     -3.935847   -2.221455   -0.577392
H     -4.750447   -0.556379    1.089507
H     -5.780648   -0.712774   -0.328637
H     -3.775586    1.551241    0.174193
H     -4.714319    1.358514   -1.308888
H     -5.789647    2.966738    0.238583
H     -6.831713    1.552123    0.009932
H     -5.885120    1.727024    1.500577
C      3.709708    0.014901   -0.330204
C      4.175463    0.668522   -1.458649
S      4.877905    0.095406    0.929550
C      5.984334    0.987758   -0.020596
C      5.477454    1.223686   -1.282724
C      7.251408    1.380349    0.547303
H      3.616077    0.746757   -2.383399
H      6.016624    1.769290   -2.049435
O      7.692407    1.166177    1.667389
O      7.997592    2.078429   -0.340404
H      8.809585    2.277907    0.169375
