37
Conformer 19, Energy = -1.2717 kcal/mol
S      1.360016   -0.610538   -1.116367
C      2.331701    0.785165   -0.870239
C      1.604004    1.931657   -1.140971
C      0.261678    1.659948   -1.537488
C     -0.009048    0.309106   -1.564235
C     -1.296269   -0.371990   -1.925711
C     -2.208613   -0.533193   -0.705985
C     -3.527952   -1.207918   -1.088407
C     -4.433787   -1.497986    0.111752
C     -4.951859   -0.235540    0.801771
C     -5.935852   -0.574544    1.911227
H      2.007391    2.932693   -1.052108
H     -0.467857    2.421151   -1.786959
H     -1.809921    0.221497   -2.692890
H     -1.095578   -1.351970   -2.376607
H     -2.404237    0.452263   -0.267171
H     -1.701387   -1.128855    0.063259
H     -3.310828   -2.159544   -1.589407
H     -4.066190   -0.585206   -1.813321
H     -5.288211   -2.089166   -0.240823
H     -3.896315   -2.122331    0.835901
H     -4.120478    0.331555    1.233601
H     -5.445666    0.413844    0.069796
H     -6.291852    0.340671    2.394558
H     -5.464680   -1.201304    2.675114
H     -6.805131   -1.109331    1.515375
C      3.719035    0.720760   -0.456049
C      4.673937    1.709701   -0.618017
S      4.396936   -0.638706    0.346808
C      5.942805    0.081271    0.467773
C      5.947805    1.343535   -0.091795
C      7.017401   -0.646824    1.098141
H      4.478428    2.658897   -1.101999
H      6.826867    1.977126   -0.123628
O      7.005336   -1.764736    1.592935
O      8.165101    0.071387    1.105378
H      8.793270   -0.532543    1.552511
