37
Conformer 29, Energy = -0.5318 kcal/mol
S      1.208427    0.589194   -0.730765
C      2.453272    0.565555    0.453555
C      1.910106    0.425457    1.719509
C      0.487504    0.330898    1.709011
C     -0.028765    0.403105    0.433419
C     -1.467897    0.341121    0.009954
C     -1.933011   -1.105784   -0.179169
C     -3.363809   -1.217490   -0.715913
C     -4.418201   -0.685707    0.258376
C     -5.852643   -0.993017   -0.179423
C     -6.254144   -0.297803   -1.471165
H      2.502859    0.382248    2.624750
H     -0.123774    0.212550    2.595714
H     -2.075889    0.835227    0.777139
H     -1.617733    0.907173   -0.917814
H     -1.264356   -1.615259   -0.885121
H     -1.852605   -1.652479    0.769074
H     -3.430332   -0.686026   -1.672092
H     -3.568607   -2.274759   -0.924665
H     -4.256861   -1.137232    1.244931
H     -4.306449    0.397484    0.381779
H     -6.534985   -0.671196    0.616392
H     -5.985247   -2.075407   -0.291261
H     -7.313035   -0.479313   -1.681696
H     -6.103893    0.783953   -1.398548
H     -5.678728   -0.671311   -2.323233
C      3.859152    0.696852    0.126907
C      4.871561    1.087828    0.986122
S      4.497465    0.350740   -1.430358
C      6.098939    0.725589   -0.964023
C      6.153606    1.107064    0.361853
C      7.164022    0.615152   -1.931307
H      4.707728    1.360221    2.021682
H      7.072757    1.388798    0.862847
O      7.108284    0.275458   -3.104417
O      8.359943    0.949458   -1.391775
H      8.975341    0.831660   -2.144545
