37
Conformer  2, Energy = -2.5157 kcal/mol
S      1.040337    0.388069   -0.548015
C      2.513917   -0.497992   -0.474400
C      2.255938   -1.857619   -0.533773
C      0.866245   -2.160493   -0.637688
C      0.086072   -1.025313   -0.653234
C     -1.409327   -0.928669   -0.748909
C     -2.061538   -0.959940    0.636426
C     -3.591690   -0.999564    0.587010
C     -4.214030    0.273222    0.008980
C     -5.740040    0.233938    0.101373
C     -6.365356    1.495507   -0.472029
H      3.025752   -2.619138   -0.503789
H      0.463848   -3.164813   -0.694762
H     -1.688614   -0.014228   -1.284673
H     -1.782121   -1.767444   -1.350187
H     -1.736171   -0.093527    1.225776
H     -1.715696   -1.848801    1.179907
H     -3.918767   -1.869407    0.004742
H     -3.961824   -1.146744    1.609197
H     -3.922569    0.389703   -1.041000
H     -3.835586    1.148236    0.551281
H     -6.123727   -0.637880   -0.441620
H     -6.047427    0.124833    1.147918
H     -6.102465    1.619356   -1.527429
H     -6.027901    2.382803    0.073184
H     -7.456156    1.445743   -0.397061
C      3.799086    0.167298   -0.367745
C      4.053648    1.524604   -0.262353
S      5.276100   -0.715310   -0.357301
C      6.233218    0.694075   -0.221051
C      5.445251    1.826716   -0.178779
C      7.670079    0.573423   -0.167063
H      3.280652    2.283882   -0.245340
H      5.847046    2.829962   -0.092988
O      8.359579   -0.435626   -0.202126
O      8.265976    1.784580   -0.065011
H      9.218260    1.556558   -0.041746
