37
Conformer  7, Energy = -1.9156 kcal/mol
S      1.281782    0.489986   -1.244993
C      2.595421    0.787333   -0.173507
C      2.152331    1.475158    0.944173
C      0.753254    1.749934    0.915023
C      0.151288    1.264711   -0.225048
C     -1.293687    1.352928   -0.619328
C     -2.100162    0.175786   -0.065071
C     -3.575359    0.280535   -0.456122
C     -4.382505   -0.894978    0.097249
C     -5.856414   -0.790262   -0.293617
C     -6.662348   -1.957076    0.254572
H      2.796761    1.776890    1.760960
H      0.219014    2.276908    1.696589
H     -1.709360    2.294980   -0.239376
H     -1.389681    1.391830   -1.711679
H     -1.687851   -0.769322   -0.440569
H     -2.011666    0.146107    1.028466
H     -3.990094    1.222093   -0.076074
H     -3.664637    0.305201   -1.549010
H     -4.293116   -0.920064    1.190158
H     -3.967737   -1.836713   -0.282455
H     -6.277074    0.147674    0.087203
H     -5.951655   -0.768997   -1.385488
H     -7.713071   -1.862060   -0.036741
H     -6.287116   -2.909576   -0.133089
H     -6.614331   -1.987831    1.347771
C      3.943326    0.344656   -0.478478
C      4.385730   -0.342864   -1.595845
S      5.256639    0.642075    0.591994
C      6.392722   -0.134056   -0.421128
C      5.784766   -0.616348   -1.563232
C      7.793939   -0.245217   -0.083075
H      3.741615   -0.644628   -2.413247
H      6.323488   -1.143841   -2.342802
O      8.668858   -0.781944   -0.748843
O      8.112297    0.320553    1.102696
H      9.074634    0.160439    1.177684
