37
Conformer 15, Energy = -1.3064 kcal/mol
S      1.365018   -0.209901   -1.057045
C      2.456751    1.022913   -0.566078
C      1.774804    2.206109   -0.337456
C      0.370607    2.092227   -0.556927
C      0.007508    0.822962   -0.951783
C     -1.364589    0.308961   -1.274812
C     -2.078323   -0.211403   -0.024501
C     -3.483432   -0.718702   -0.357715
C     -4.196972   -1.235150    0.893686
C     -5.566478   -1.851186    0.599957
C     -6.585237   -0.848029    0.081478
H      2.254638    3.122081   -0.015836
H     -0.335974    2.903302   -0.427292
H     -1.307191   -0.484015   -2.031015
H     -1.952091    1.120561   -1.722863
H     -1.493681   -1.021977    0.428684
H     -2.145133    0.587022    0.725579
H     -4.060386    0.095872   -0.809647
H     -3.416435   -1.522425   -1.100802
H     -3.573148   -2.000498    1.371950
H     -4.308443   -0.420178    1.619264
H     -5.953714   -2.293128    1.525827
H     -5.460727   -2.669767   -0.121424
H     -6.687680   -0.001316    0.767484
H     -6.305240   -0.464245   -0.903819
H     -7.565671   -1.325315   -0.016077
C      3.885183    0.811769   -0.441889
C      4.866472    1.787980   -0.454664
S      4.589809   -0.741039   -0.230705
C      6.180331   -0.117558   -0.165800
C      6.180756    1.256721   -0.299286
C      7.290618   -1.022339    0.009901
H      4.660396    2.844132   -0.579157
H      7.084212    1.855742   -0.287090
O      7.282622   -2.239120    0.128496
O      8.470605   -0.359072    0.038028
H      9.120212   -1.081992    0.159072
