37
Conformer 60, Energy = 1.1661 kcal/mol
S      0.672240    0.862000   -0.487610
C      2.030093    0.065289   -1.175296
C      1.660877   -0.601958   -2.330812
C      0.277622   -0.454121   -2.642534
C     -0.387955    0.313817   -1.711055
C     -1.839483    0.698284   -1.690275
C     -2.770150   -0.489207   -1.420709
C     -2.652138   -1.113531   -0.024851
C     -2.937667   -0.173239    1.150988
C     -4.306887    0.510220    1.135985
C     -5.472816   -0.465587    1.164300
H      2.351250   -1.169690   -2.942162
H     -0.203368   -0.894261   -3.507910
H     -2.029477    1.503334   -0.971410
H     -2.090253    1.114738   -2.674927
H     -3.804580   -0.165354   -1.585350
H     -2.582859   -1.275886   -2.163060
H     -1.646673   -1.532580    0.102852
H     -3.334559   -1.970591    0.027328
H     -2.163461    0.600694    1.198420
H     -2.841399   -0.749219    2.080221
H     -4.398076    1.165435    0.262964
H     -4.376264    1.159659    2.017143
H     -5.517947   -1.063793    0.249582
H     -5.396107   -1.144672    2.019291
H     -6.417652    0.080753    1.249682
C      3.353387    0.102585   -0.584950
C      4.388864   -0.783212   -0.827294
S      3.851380    1.311698    0.529241
C      5.422367    0.658369    0.690742
C      5.571143   -0.466957   -0.096350
C      6.427535    1.242643    1.550122
H      4.308636   -1.632956   -1.494309
H      6.491850   -1.038227   -0.142559
O      7.569897    0.838979    1.720764
O      6.005651    2.346006    2.206845
H      6.786979    2.610540    2.732677
