37
Conformer 35, Energy = -0.1165 kcal/mol
S      1.059087    0.653514    0.319957
C      2.458229    0.628083   -0.681856
C      2.088331    0.613846   -2.016561
C      0.675027    0.624110   -2.206568
C     -0.010531    0.644235   -1.012060
C     -1.496419    0.660244   -0.795726
C     -2.068313   -0.759338   -0.736706
C     -3.598656   -0.797210   -0.666293
C     -4.158790   -0.245042    0.647252
C     -5.687797   -0.286257    0.716605
C     -6.258100   -1.695366    0.762704
H      2.794727    0.597110   -2.837588
H      0.189994    0.616031   -3.175399
H     -1.731845    1.208662    0.123359
H     -1.968473    1.213433   -1.617381
H     -1.756549   -1.312136   -1.632579
H     -1.647457   -1.300346    0.120175
H     -3.909499   -1.841155   -0.785851
H     -4.019767   -0.242014   -1.512958
H     -3.737111   -0.801245    1.492999
H     -3.850000    0.799064    0.768067
H     -6.007718    0.246323    1.620390
H     -6.115159    0.253455   -0.136548
H     -7.341994   -1.656361    0.912473
H     -5.823019   -2.269010    1.587211
H     -6.073358   -2.235069   -0.170629
C      3.797018    0.624364   -0.122085
C      4.166572    0.653806    1.211778
S      5.195465    0.579758   -1.122880
C      6.271983    0.600904    0.203719
C      5.580207    0.640768    1.397993
C      7.708739    0.579354    0.045151
H      3.460709    0.685008    2.033115
H      6.070123    0.660328    2.365272
O      8.545656    0.595836    0.937416
O      8.111346    0.535462   -1.244530
H      9.087340    0.526851   -1.175713
