37
Conformer 45, Energy = 0.0731 kcal/mol
S      1.274406    0.904316    0.559938
C      2.267797    1.022826   -0.837335
C      1.513315    1.410005   -1.931985
C      0.137010    1.610906   -1.618481
C     -0.134345    1.366958   -0.289742
C     -1.451908    1.466672    0.421292
C     -2.232651    0.151107    0.345034
C     -3.584383    0.269181    1.052887
C     -4.360643   -1.049737    1.106894
C     -4.804900   -1.550631   -0.267895
C     -5.668069   -2.797761   -0.150922
H      1.925146    1.554891   -2.923003
H     -0.614530    1.918471   -2.335778
H     -2.042621    2.271471   -0.034766
H     -1.298794    1.752176    1.469618
H     -1.648125   -0.656736    0.802807
H     -2.381942   -0.121103   -0.706422
H     -3.420167    0.610420    2.082606
H     -4.195138    1.035401    0.560081
H     -3.750635   -1.815627    1.601234
H     -5.246776   -0.898456    1.735961
H     -3.933468   -1.785974   -0.887958
H     -5.372472   -0.768177   -0.784572
H     -5.972385   -3.142399   -1.144189
H     -5.119714   -3.609652    0.337441
H     -6.573497   -2.595670    0.430192
C      3.687555    0.731196   -0.826764
C      4.472829    0.419824   -1.923078
S      4.640062    0.751800    0.602753
C      6.076767    0.343954   -0.228251
C      5.838427    0.196070   -1.580795
C      7.348831    0.186186    0.440505
H      4.090415    0.344410   -2.933767
H      6.614454   -0.063183   -2.292664
O      8.418507   -0.102502   -0.078639
O      7.289691    0.391082    1.775120
H      8.211953    0.248282    2.068368
