37
Conformer 17, Energy = -1.2763 kcal/mol
S      1.427771   -0.450627   -0.768372
C      2.461757    0.864387   -0.375398
C      1.714108    1.984083   -0.051987
C      0.308463    1.755277   -0.120226
C      0.009793    0.463948   -0.497270
C     -1.343708   -0.159938   -0.679784
C     -1.888072   -0.710331    0.641696
C     -3.216858   -1.456057    0.487657
C     -4.374126   -0.553245    0.055040
C     -5.695899   -1.322119    0.029703
C     -6.850017   -0.431959   -0.403113
H      2.149439    2.933810    0.232954
H     -0.443952    2.503038    0.100306
H     -1.297355   -0.960553   -1.428425
H     -2.023831    0.601173   -1.080227
H     -1.157289   -1.404791    1.076129
H     -2.006302    0.104773    1.367038
H     -3.463430   -1.916207    1.452658
H     -3.097239   -2.275900   -0.231051
H     -4.456468    0.295494    0.744646
H     -4.179383   -0.144235   -0.942620
H     -5.909926   -1.728756    1.024958
H     -5.619064   -2.171799   -0.658682
H     -6.683087   -0.034601   -1.409381
H     -7.784629   -1.001430   -0.413559
H     -6.973716    0.411533    0.283580
C      3.907688    0.772331   -0.410695
C      4.798169    1.827339   -0.511119
S      4.756345   -0.718062   -0.306663
C      6.287795    0.035701   -0.402577
C      6.160729    1.406450   -0.509155
C      7.481181   -0.774661   -0.365424
H      4.493662    2.863720   -0.592444
H      7.007817    2.078850   -0.583501
O      7.586182   -1.988960   -0.269834
O      8.598666   -0.015253   -0.452663
H      9.314787   -0.682422   -0.416471
