37
Conformer 50, Energy = 0.5620 kcal/mol
S      1.275489    0.477635    0.752639
C      2.388985   -0.300660   -0.299798
C      1.731034   -1.215714   -1.104271
C      0.327407   -1.266378   -0.859317
C     -0.059323   -0.389226    0.130577
C     -1.439851   -0.149740    0.669795
C     -2.194365    0.886984   -0.167110
C     -3.571729    1.242188    0.401400
C     -4.559095    0.078740    0.534186
C     -4.867052   -0.613213   -0.793868
C     -5.936946   -1.681553   -0.627308
H      2.227438   -1.824516   -1.849699
H     -0.362361   -1.913759   -1.387598
H     -1.390674    0.177392    1.715801
H     -1.981415   -1.103210    0.667079
H     -2.294132    0.536227   -1.201429
H     -1.604029    1.811196   -0.221425
H     -3.439664    1.698525    1.390424
H     -4.019477    2.015147   -0.235750
H     -5.491669    0.473532    0.957068
H     -4.182235   -0.653881    1.257097
H     -3.963765   -1.083693   -1.196735
H     -5.207509    0.125075   -1.528936
H     -6.872728   -1.246707   -0.261881
H     -5.615179   -2.451288    0.081457
H     -6.140354   -2.166870   -1.587016
C      3.810832   -0.019587   -0.296211
C      4.813151   -0.835334   -0.791545
S      4.479095    1.434180    0.329160
C      6.082317    0.977954   -0.048515
C      6.112210   -0.266242   -0.647823
C      7.222928    1.817974    0.240702
H      4.632605   -1.807721   -1.233470
H      7.030661   -0.746009   -0.967917
O      8.396632    1.566785    0.003259
O      6.898782    2.988394    0.833766
H      7.763989    3.427374    0.958933
