37
Conformer 64, Energy = 1.9385 kcal/mol
S      0.966685   -0.780473   -1.074528
C      2.106689    0.500180   -0.928455
C      1.537746    1.693759   -1.340591
C      0.183918    1.551814   -1.765303
C     -0.261404    0.251857   -1.662826
C     -1.614555   -0.296448   -2.012219
C     -2.715318    0.156716   -1.046460
C     -2.566561   -0.440642    0.358394
C     -3.732855   -0.079266    1.285871
C     -4.814979   -1.157257    1.398055
C     -5.556823   -1.440190    0.103343
H      2.061633    2.641912   -1.343742
H     -0.430817    2.368675   -2.124213
H     -1.597697   -1.392095   -2.064426
H     -1.871419    0.051978   -3.021108
H     -2.728775    1.251731   -0.976797
H     -3.678757   -0.138070   -1.474539
H     -1.648616   -0.041536    0.806914
H     -2.442315   -1.528419    0.303484
H     -4.181898    0.876982    0.992274
H     -3.326102    0.069979    2.294541
H     -4.371757   -2.088226    1.771027
H     -5.543332   -0.834473    2.151919
H     -5.964017   -0.520460   -0.327847
H     -4.903642   -1.916124   -0.633701
H     -6.391218   -2.123805    0.291012
C      3.452388    0.270629   -0.436374
C      4.020779   -0.922871   -0.024788
S      4.593049    1.550199   -0.292455
C      5.821466    0.525650    0.308183
C      5.373978   -0.777369    0.400453
C      7.138716    1.007057    0.659101
H      3.497714   -1.871815   -0.023351
H      5.993745   -1.592022    0.758823
O      8.070466    0.343844    1.093607
O      7.299816    2.335371    0.466413
H      8.224069    2.493226    0.746034
