37
Conformer 70, Energy = 3.3821 kcal/mol
S      1.036513    0.808079   -1.047697
C      2.131477    0.540244    0.249419
C      1.438267    0.233960    1.408307
C      0.024650    0.213452    1.224125
C     -0.334685    0.506958   -0.073408
C     -1.715170    0.582845   -0.658555
C     -2.195012   -0.790081   -1.137845
C     -3.573932   -0.753058   -1.797907
C     -4.743505   -0.295101   -0.919246
C     -5.075138   -1.227734    0.249633
C     -4.412856   -0.827551    1.559444
H      1.918129    0.022347    2.355761
H     -0.690528   -0.009202    2.006994
H     -1.738419    1.297411   -1.490806
H     -2.393354    0.978575    0.106060
H     -1.481152   -1.181877   -1.874747
H     -2.190721   -1.511686   -0.313491
H     -3.524034   -0.091770   -2.672467
H     -3.797439   -1.753954   -2.188441
H     -5.626891   -0.261128   -1.570935
H     -4.592465    0.732394   -0.570726
H     -6.160055   -1.198682    0.411460
H     -4.824449   -2.265693    0.003729
H     -4.759786   -1.479439    2.367844
H     -4.666221    0.202989    1.828146
H     -3.325534   -0.912025    1.512820
C      3.569658    0.649774    0.106990
C      4.485908    0.845422    1.125638
S      4.375703    0.525787   -1.404967
C      5.923172    0.737884   -0.711098
C      5.831432    0.898267    0.657826
C      7.137807    0.741115   -1.495269
H      4.211011    0.956322    2.167543
H      6.696520    1.048210    1.294478
O      8.278851    0.885367   -1.077816
O      6.930163    0.561691   -2.818663
H      7.832086    0.589888   -3.196410
