37
Conformer 22, Energy = -1.0644 kcal/mol
S      1.080136    0.429277    0.966003
C      2.334104    0.933452   -0.099595
C      1.852719    1.881950   -0.986875
C      0.473191    2.184849   -0.789602
C     -0.075936    1.459904    0.245025
C     -1.486577    1.495555    0.755194
C     -2.383125    0.511571   -0.002477
C     -3.821879    0.562894    0.516667
C     -4.788250   -0.318714   -0.279534
C     -4.495121   -1.813867   -0.149365
C     -5.548292   -2.649084   -0.861627
H      2.456422    2.350167   -1.754853
H     -0.084936    2.899600   -1.382545
H     -1.510145    1.272812    1.829352
H     -1.879675    2.514046    0.642339
H     -1.981804   -0.502833    0.104864
H     -2.370558    0.746853   -1.074222
H     -3.844923    0.271964    1.573933
H     -4.183674    1.597426    0.465943
H     -4.766175   -0.027186   -1.336694
H     -5.805671   -0.121061    0.080507
H     -3.514880   -2.049033   -0.577243
H     -4.466888   -2.097801    0.908894
H     -6.541854   -2.473890   -0.436802
H     -5.319101   -3.714522   -0.760263
H     -5.583126   -2.408849   -1.929069
C      3.676277    0.389215   -0.009113
C      4.156906   -0.559055    0.877844
S      4.930066    0.893404   -1.073516
C      6.091127   -0.137359   -0.360112
C      5.536219   -0.859909    0.677488
C      7.460547   -0.207663   -0.818143
H      3.553507   -1.027599    1.646264
H      6.098580   -1.575024    1.267878
O      8.350187   -0.914901   -0.365198
O      7.727952    0.615302   -1.856759
H      8.674649    0.448111   -2.038867
