37
Conformer 65, Energy = 2.1142 kcal/mol
S      1.133097   -1.024368   -1.068143
C      2.134679    0.366174   -0.912849
C      1.441863    1.498702   -1.307161
C      0.107199    1.221518   -1.725730
C     -0.200376   -0.118701   -1.635616
C     -1.491291   -0.801540   -1.984710
C     -2.642359   -0.433486   -1.040758
C     -2.478540   -1.019463    0.363553
C     -3.568786   -0.591904    1.353566
C     -4.980784   -1.067477    1.000060
C     -5.809416   -0.006538    0.289764
H      1.864375    2.496159   -1.302128
H     -0.591255    1.974131   -2.071735
H     -1.767231   -0.500509   -3.003799
H     -1.370342   -1.891542   -2.011259
H     -3.564683   -0.824819   -1.484432
H     -2.750319    0.656112   -0.978797
H     -2.452505   -2.114426    0.301859
H     -1.515423   -0.707291    0.783571
H     -3.546591    0.496021    1.488866
H     -3.302762   -1.026662    2.325923
H     -4.946549   -1.983478    0.399772
H     -5.503028   -1.322489    1.930622
H     -5.365224    0.292504   -0.662367
H     -6.814133   -0.390245    0.085251
H     -5.913057    0.887943    0.912658
C      3.500411    0.272251   -0.431495
C      4.193185   -0.860462   -0.039140
S      4.502210    1.662077   -0.276871
C      5.835072    0.763939    0.303044
C      5.526743   -0.579777    0.380369
C      7.097288    1.375851    0.652929
H      3.772092   -1.858814   -0.047483
H      6.230682   -1.329704    0.724285
O      8.096248    0.808144    1.073161
O      7.117423    2.716086    0.477237
H      8.022088    2.966082    0.753708
