37
Conformer 36, Energy = -0.1024 kcal/mol
S      1.387516   -0.551518    0.537428
C      2.575997    0.093218   -0.527478
C      2.017256    0.342654   -1.770156
C      0.632798    0.007760   -1.839610
C      0.157440   -0.490327   -0.646449
C     -1.234764   -0.950600   -0.322867
C     -2.119927    0.217424    0.122122
C     -3.517447   -0.215562    0.578141
C     -4.377582   -0.779847   -0.555729
C     -5.776800   -1.202989   -0.100158
C     -6.652309   -0.040000    0.340441
H      2.569239    0.750302   -2.608375
H      0.019450    0.130211   -2.724356
H     -1.210274   -1.720829    0.457982
H     -1.657076   -1.426326   -1.215759
H     -2.208866    0.951535   -0.688835
H     -1.637801    0.740234    0.958449
H     -4.011069    0.662400    1.009806
H     -3.428889   -0.956632    1.381637
H     -4.461118   -0.040546   -1.361421
H     -3.888158   -1.661820   -0.983614
H     -6.272839   -1.712429   -0.935081
H     -5.699981   -1.932133    0.714757
H     -7.666354   -0.393726    0.553102
H     -6.717111    0.722208   -0.442403
H     -6.269338    0.429514    1.251002
C      3.945402    0.311031   -0.099562
C      4.503465    0.061463    1.142692
S      5.133657    0.955036   -1.163735
C      6.368578    0.900007    0.015849
C      5.887541    0.397812    1.208753
C      7.722208    1.333282   -0.248733
H      3.951900   -0.346639    1.981334
H      6.505068    0.277302    2.092120
O      8.661025    1.327043    0.535735
O      7.911364    1.781767   -1.509916
H      8.857798    2.029720   -1.521391
