37
Conformer  1, Energy = -2.5187 kcal/mol
S      1.049597    0.434944    0.119275
C      2.522763   -0.454837    0.135780
C      2.268572   -1.792763    0.388720
C      0.882056   -2.076397    0.564523
C      0.100489   -0.948872    0.440542
C     -1.392338   -0.837752    0.557404
C     -2.076931   -1.045768   -0.796733
C     -3.605331   -1.080427   -0.705581
C     -4.219128    0.255887   -0.282365
C     -5.746961    0.199560   -0.320234
C     -6.363898    1.523242    0.102803
H      3.039022   -2.552001    0.448418
H      0.482875   -3.062519    0.769925
H     -1.750018   -1.591786    1.270003
H     -1.659883    0.138491    0.977964
H     -1.769363   -0.260626   -1.498964
H     -1.740411   -1.996122   -1.231403
H     -3.999376   -1.358948   -1.690935
H     -3.914650   -1.868406   -0.008176
H     -3.896042    0.513742    0.732333
H     -3.864637    1.051293   -0.948979
H     -6.086061   -0.047061   -1.333092
H     -6.106731   -0.594027    0.344985
H     -7.456040    1.460748    0.067808
H     -6.048414    2.333413   -0.562346
H     -6.071133    1.783728    1.124943
C      3.803975    0.187330   -0.092199
C      4.057626    1.524975   -0.345282
S      5.276758   -0.702079   -0.074857
C      6.230539    0.678433   -0.399611
C      5.444921    1.806667   -0.521173
C      7.662928    0.541575   -0.507769
H      3.286889    2.284233   -0.404881
H      5.845399    2.792734   -0.727350
O      8.350539   -0.463475   -0.398363
O      8.256729    1.730209   -0.766491
H      9.205671    1.492660   -0.812917
