37
Conformer 69, Energy = 2.9403 kcal/mol
S      0.723164    0.855790   -1.254657
C      1.822290    1.234517    0.010614
C      1.186347    1.971831    0.994994
C     -0.186922    2.222206    0.705292
C     -0.577564    1.660730   -0.491137
C     -1.930952    1.704770   -1.139435
C     -2.746829    0.423958   -0.927181
C     -3.155687    0.206810    0.531618
C     -4.170516   -0.924131    0.736722
C     -3.654317   -2.320632    0.377961
C     -4.047009   -2.765123   -1.023640
H      1.680961    2.330936    1.888918
H     -0.854028    2.784083    1.348104
H     -2.492531    2.566560   -0.757108
H     -1.812406    1.875470   -2.217222
H     -2.174609   -0.439115   -1.284720
H     -3.651206    0.490831   -1.544319
H     -2.268449    0.002918    1.142646
H     -3.599348    1.131608    0.921334
H     -4.430768   -0.927522    1.803253
H     -5.098040   -0.700754    0.196323
H     -2.566979   -2.378800    0.500524
H     -4.087943   -3.040456    1.083333
H     -3.627982   -2.114109   -1.794065
H     -3.683348   -3.780768   -1.210190
H     -5.135739   -2.772898   -1.139243
C      3.207203    0.806844    0.011222
C      4.041449    0.717959    1.111978
S      4.050096    0.350524   -1.414446
C      5.503786    0.032294   -0.573904
C      5.353886    0.272937    0.778006
C      6.704902   -0.426323   -1.235162
H      3.729442    0.952288    2.122504
H      6.155101    0.133272    1.495456
O      7.781174   -0.675283   -0.709127
O      6.565437   -0.577097   -2.571012
H      7.447933   -0.886125   -2.858511
