37
Conformer 30, Energy = -0.4758 kcal/mol
S      1.102278   -0.967173   -0.576693
C      2.216820   -0.242279    0.511448
C      1.731131   -0.300570    1.806659
C      0.458941   -0.937623    1.897266
C     -0.009713   -1.343242    0.666077
C     -1.296278   -2.048259    0.346853
C     -2.533765   -1.167721    0.556175
C     -2.645376   -0.034678   -0.469439
C     -3.866945    0.864814   -0.251606
C     -5.229819    0.174554   -0.344435
C     -5.485065   -0.490512   -1.687756
H      2.265055    0.087222    2.665265
H     -0.084625   -1.086874    2.822567
H     -1.375358   -2.922249    1.006515
H     -1.291551   -2.439913   -0.677860
H     -2.535781   -0.749124    1.570064
H     -3.414946   -1.814778    0.478135
H     -1.754884    0.602088   -0.410385
H     -2.660498   -0.450312   -1.483405
H     -3.785685    1.341646    0.733189
H     -3.832209    1.676441   -0.989281
H     -6.008372    0.928630   -0.176092
H     -5.340052   -0.563903    0.457003
H     -5.356600    0.220979   -2.509511
H     -4.809842   -1.335530   -1.851335
H     -6.509872   -0.873440   -1.728417
C      3.469826    0.348279    0.084963
C      4.223745    1.275188    0.783983
S      4.238692   -0.049801   -1.399227
C      5.552894    1.005639   -1.113727
C      5.415013    1.653873    0.097548
C      6.605177    1.110450   -2.095536
H      3.935946    1.678895    1.747106
H      6.136331    2.369597    0.475233
O      6.721206    0.532141   -3.166415
O      7.559677    1.988539   -1.706984
H      8.194499    1.959007   -2.452224
