37
Conformer 57, Energy = 0.8635 kcal/mol
S      1.192941   -0.965941   -0.762863
C      2.136402    0.412129   -0.351878
C      1.323310    1.523183   -0.203789
C     -0.055089    1.240402   -0.434059
C     -0.270343   -0.084297   -0.744605
C     -1.573939   -0.764822   -1.047186
C     -2.274061   -1.224924    0.234734
C     -3.578913   -1.978932   -0.024976
C     -4.693040   -1.197182   -0.730824
C     -5.260392   -0.022478    0.071769
C     -4.623040    1.316250   -0.269892
H      1.692146    2.508764    0.052753
H     -0.847199    1.976688   -0.370356
H     -2.210126   -0.062941   -1.598096
H     -1.412552   -1.621835   -1.712509
H     -2.456657   -0.375102    0.901584
H     -1.603401   -1.895083    0.789201
H     -3.353599   -2.871337   -0.623101
H     -3.962179   -2.347524    0.935369
H     -4.374022   -0.874412   -1.727619
H     -5.514347   -1.907144   -0.896604
H     -5.182085   -0.211028    1.148327
H     -6.331017    0.059288   -0.153135
H     -4.716320    1.533049   -1.338373
H     -3.565017    1.347586   -0.005095
H     -5.123897    2.119592    0.279529
C      3.575136    0.329623   -0.195884
C      4.422213   -0.682021   -0.614683
S      4.469835    1.569350    0.591251
C      5.961276    0.761599    0.380046
C      5.788041   -0.435165   -0.286454
C      7.171812    1.365578    0.881623
H      4.087728   -1.568440   -1.140778
H      6.604174   -1.106050   -0.529785
O      7.315548    2.426489    1.472320
O      8.253621    0.593581    0.625748
H      8.987054    1.113508    1.014017
