37
Conformer 18, Energy = -1.2730 kcal/mol
S      1.464186   -0.490719    0.252192
C      2.473988    0.838995   -0.153830
C      1.710273    1.971824   -0.379015
C      0.312659    1.744849   -0.211722
C      0.035585    0.439490    0.132037
C     -1.303711   -0.186969    0.393482
C     -1.954188   -0.677055   -0.903542
C     -3.271965   -1.423969   -0.677512
C     -4.385548   -0.536401   -0.117460
C     -5.706338   -1.301229   -0.020235
C     -6.816917   -0.426297    0.539077
H      2.129425    2.934204   -0.645139
H     -0.449446    2.504415   -0.338756
H     -1.204239   -1.019741    1.100719
H     -1.944872    0.558292    0.878992
H     -2.123331    0.169393   -1.581353
H     -1.264753   -1.354532   -1.423895
H     -3.102148   -2.274344   -0.005935
H     -3.596520   -1.841367   -1.638870
H     -4.516197    0.341017   -0.762248
H     -4.110243   -0.170602    0.877993
H     -6.000648   -1.664723   -1.011671
H     -5.581287   -2.179500    0.623784
H     -7.751548   -0.992622    0.599504
H     -6.568700   -0.072174    1.544714
H     -6.988721    0.445743   -0.099963
C      3.916230    0.736402   -0.252638
C      4.757588    1.591911   -0.942775
S      4.824825   -0.499102    0.522136
C      6.316676    0.096647   -0.062862
C      6.131597    1.225004   -0.836851
C      7.538985   -0.587614    0.283527
H      4.409744    2.445388   -1.512016
H      6.945787    1.763972   -1.307835
O      7.695492   -1.586493    0.970883
O      8.618559    0.018752   -0.264139
H      9.359719   -0.540846    0.046945
