37
Conformer 11, Energy = -1.5551 kcal/mol
S      1.157959   -0.429114    0.228548
C      2.476733    0.676120    0.191495
C      2.034674    1.955455    0.485155
C      0.632374    2.020137    0.736615
C      0.026824    0.787715    0.627034
C     -1.423229    0.446461    0.815710
C     -2.202089    0.566670   -0.497496
C     -3.712020    0.364232   -0.331481
C     -4.091419   -1.067040    0.057621
C     -5.600590   -1.270485    0.216227
C     -6.373411   -1.141684   -1.087433
H      2.682209    2.823152    0.522869
H      0.098582    2.930159    0.983579
H     -1.514623   -0.565274    1.226864
H     -1.853918    1.125198    1.562667
H     -1.814718   -0.149956   -1.232782
H     -2.038130    1.564602   -0.925272
H     -4.187245    0.621924   -1.284724
H     -4.097908    1.067634    0.416037
H     -3.702234   -1.769798   -0.688814
H     -3.620411   -1.325068    1.012550
H     -5.773295   -2.274229    0.623039
H     -5.998625   -0.559234    0.949249
H     -7.425497   -1.397883   -0.926094
H     -5.973678   -1.818015   -1.849656
H     -6.338675   -0.120209   -1.476579
C      3.827249    0.241536   -0.113624
C      4.265921   -1.035145   -0.422678
S      5.149227    1.342724   -0.130507
C      6.282171    0.131571   -0.543694
C      5.669573   -1.098902   -0.668702
C      7.670852    0.486414   -0.710308
H      3.615536   -1.900260   -0.474795
H      6.202808   -2.007180   -0.925210
O      8.204484    1.580590   -0.597487
O      8.422668   -0.591166   -1.035925
H      9.321870   -0.211653   -1.116273
