37
Conformer 66, Energy = 2.2242 kcal/mol
S      1.260669   -0.726487    0.014950
C      2.149545    0.564283   -0.689818
C      1.293201    1.446664   -1.326536
C     -0.076884    1.065292   -1.225786
C     -0.239905   -0.103868   -0.514869
C     -1.518425   -0.822991   -0.194070
C     -2.154291   -0.285776    1.092039
C     -3.454107   -1.004377    1.472595
C     -4.734280   -0.284904    1.032429
C     -4.970657   -0.179638   -0.473615
C     -5.134968   -1.528931   -1.155683
H      1.626231    2.339820   -1.840389
H     -0.900431    1.625360   -1.652451
H     -1.334526   -1.900346   -0.096522
H     -2.201974   -0.705081   -1.040505
H     -2.320418    0.796243    1.020256
H     -1.438066   -0.428013    1.912559
H     -3.489053   -1.060170    2.568842
H     -3.447912   -2.042153    1.121825
H     -4.733531    0.727714    1.455246
H     -5.590224   -0.801327    1.485511
H     -4.164752    0.387071   -0.950333
H     -5.887609    0.400220   -0.636285
H     -4.220925   -2.126271   -1.099188
H     -5.374603   -1.387397   -2.214449
H     -5.948587   -2.101571   -0.699178
C      3.593735    0.662471   -0.618436
C      4.412015    1.397851   -1.458504
S      4.530786   -0.134805    0.580975
C      6.005747    0.487275   -0.019199
C      5.793072    1.296103   -1.117845
C      7.243146    0.133084    0.633202
H      4.044607    1.982153   -2.293385
H      6.592913    1.792908   -1.655101
O      7.423921   -0.583511    1.607111
O      8.306276    0.712318    0.027127
H      9.060263    0.390788    0.563205
