37
Conformer 52, Energy = 0.6008 kcal/mol
S      1.347278   -0.833025    0.333153
C      2.361456   -0.100793   -0.845209
C      1.695687    0.002458   -2.054964
C      0.370255   -0.520969   -2.009176
C      0.047028   -1.009009   -0.761765
C     -1.242074   -1.634224   -0.316024
C     -2.234509   -0.579989    0.183418
C     -3.555057   -1.223348    0.611679
C     -4.545565   -0.230251    1.227337
C     -4.981332    0.923237    0.320567
C     -5.658077    0.466478   -0.962181
H      2.136869    0.428025   -2.947692
H     -0.310284   -0.536035   -2.852127
H     -1.681827   -2.182671   -1.158919
H     -1.054499   -2.375801    0.470614
H     -2.414978    0.152874   -0.611871
H     -1.802253   -0.031434    1.029628
H     -3.348652   -2.001094    1.357844
H     -4.015347   -1.732474   -0.242894
H     -5.436676   -0.785065    1.546809
H     -4.104288    0.192696    2.138474
H     -4.125245    1.561385    0.075962
H     -5.684218    1.552792    0.879738
H     -6.504012   -0.193836   -0.746813
H     -4.960501   -0.065043   -1.616108
H     -6.036332    1.331882   -1.515814
C      3.710772    0.345982   -0.561298
C      4.443511    1.267849   -1.288462
S      4.637378   -0.244453    0.759308
C      5.992754    0.721349    0.370451
C      5.747407    1.484374   -0.754559
C      7.212166    0.706237    1.147034
H      4.064811    1.778862   -2.165316
H      6.475731    2.169758   -1.174059
O      8.222756    1.363144    0.936707
O      7.174267   -0.139106    2.200902
H      8.055599   -0.030765    2.611350
