37
Conformer 61, Energy = 1.5832 kcal/mol
S      0.403572    1.105043   -1.459472
C      1.718367    0.064429   -1.072963
C      1.487767   -1.203546   -1.580176
C      0.243715   -1.314089   -2.268273
C     -0.461171   -0.130004   -2.264723
C     -1.797613    0.156595   -2.880008
C     -2.965799   -0.560709   -2.192737
C     -3.333060   -0.002430   -0.810550
C     -2.660383   -0.753093    0.342700
C     -2.935878   -0.127804    1.712639
C     -4.398195   -0.184812    2.126148
H      2.177553   -2.031488   -1.469990
H     -0.115546   -2.223292   -2.735389
H     -1.996532    1.235060   -2.912955
H     -1.760404   -0.172699   -3.927017
H     -2.787254   -1.641376   -2.138602
H     -3.841655   -0.427093   -2.841521
H     -3.106085    1.068615   -0.756585
H     -4.419428   -0.098449   -0.694705
H     -2.994448   -1.797943    0.343910
H     -1.576747   -0.773742    0.198804
H     -2.594203    0.913803    1.721989
H     -2.341318   -0.662379    2.463173
H     -5.022800    0.437738    1.478956
H     -4.776972   -1.211124    2.091521
H     -4.513135    0.184238    3.150440
C      2.867086    0.534620   -0.321354
C      3.106304    1.807357    0.168359
S      4.170704   -0.511145    0.085986
C      5.036400    0.716337    0.900422
C      4.345452    1.911348    0.866079
C      6.318737    0.484693    1.526513
H      2.427316    2.641738    0.038399
H      4.715507    2.822345    1.323630
O      7.001013    1.304231    2.126234
O      6.759846   -0.787348    1.404682
H      7.619285   -0.773629    1.872157
