37
Conformer 16, Energy = -1.2800 kcal/mol
S      0.729642   -0.036583   -1.688334
C      1.765617    1.022857   -0.818792
C      1.168058    2.262623   -0.667709
C     -0.124899    2.335171   -1.263960
C     -0.496185    1.143950   -1.849617
C     -1.771142    0.821873   -2.574132
C     -2.986671    0.746494   -1.644081
C     -2.945589   -0.456180   -0.694754
C     -4.219446   -0.536477    0.150502
C     -4.274631   -1.775833    1.046386
C     -3.206430   -1.791439    2.128980
H      1.636208    3.095835   -0.158545
H     -0.751114    3.219333   -1.258594
H     -1.948572    1.611030   -3.316341
H     -1.680600   -0.113360   -3.140303
H     -3.887420    0.676063   -2.266746
H     -3.077453    1.671936   -1.061824
H     -2.831909   -1.379063   -1.275959
H     -2.074618   -0.373558   -0.036704
H     -4.312491    0.366567    0.766075
H     -5.091386   -0.556518   -0.514986
H     -4.188207   -2.682044    0.435683
H     -5.258906   -1.811517    1.528484
H     -3.245878   -0.879909    2.733605
H     -2.203278   -1.881459    1.702187
H     -3.359919   -2.646592    2.795106
C      3.066880    0.624959   -0.319679
C      3.783893    1.239083    0.692717
S      3.948764   -0.706836   -0.952988
C      5.262876   -0.469335    0.114373
C      5.039899    0.611969    0.943501
C      6.398070   -1.357909    0.051122
H      3.426030    2.099968    1.244273
H      5.746049    0.939073    1.698193
O      6.589195   -2.313636   -0.686944
O      7.340111   -1.024028    0.964447
H      8.035454   -1.696509    0.811082
