46
Conformer 27, Energy = 13.4071 kcal/mol
C     -0.749957    3.453893    0.162117
N     -1.284915    2.121844   -0.127963
C     -1.190938    1.018371    0.552406
C     -0.579110    0.897819    1.888000
C      0.647538    0.401083    2.101686
C      1.589456   -0.158064    1.105906
C      2.028729    0.546092   -0.050217
O      1.675715    1.729508   -0.380175
C      2.937869   -0.170174   -0.857399
C      3.394604   -1.463199   -0.564457
C      2.963771   -2.119126    0.583114
C      3.410504   -3.495969    0.821988
C      3.990474   -4.026593    1.908937
C      4.315674   -3.356811    3.191213
O      3.604340   -2.531596    3.747823
C      2.054805   -1.461808    1.405837
C     -1.975421   -0.132233   -0.135549
C     -3.164303   -0.550219    0.740742
C     -1.115303   -1.345922   -0.481924
C     -2.460111    0.555524   -1.387315
C     -2.015601    1.874362   -1.373216
C     -2.294747    2.757517   -2.401536
C     -3.050532    2.280771   -3.476572
C     -3.507652    0.951361   -3.496996
C     -3.213848    0.076024   -2.447693
H     -0.144046    3.798774   -0.679509
H     -1.592718    4.134175    0.315439
H     -0.142594    3.434768    1.073020
H     -1.156072    1.277711    2.722767
H      1.028947    0.365120    3.120321
H      3.317564    0.313489   -1.759052
H      4.095279   -1.932494   -1.248801
H      3.289894   -4.139156   -0.048744
H      4.323298   -5.058886    1.868309
H      5.245559   -3.725237    3.664278
H      1.685702   -1.965119    2.295547
H     -2.823675   -0.987855    1.686573
H     -3.803956    0.306230    0.989730
H     -3.790346   -1.297208    0.236797
H     -1.690621   -2.098865   -1.033825
H     -0.260828   -1.073884   -1.110589
H     -0.731909   -1.835834    0.419911
H     -1.933549    3.779623   -2.403409
H     -3.277249    2.940128   -4.313235
H     -4.088240    0.597383   -4.348171
H     -3.561481   -0.952803   -2.476114
