46
Conformer 18, Energy = 4.1793 kcal/mol
C     -1.795786    0.484116   -3.088229
N     -1.836985    0.628766   -1.630496
C     -0.952520    1.115615   -0.813086
C      0.326693    1.729215   -1.216916
C      1.510272    1.102896   -1.149421
C      1.792285   -0.255549   -0.633027
C      1.144485   -1.428304   -1.112779
O      0.264604   -1.457608   -2.036571
C      1.556977   -2.628271   -0.492888
C      2.537875   -2.695632    0.503738
C      3.169288   -1.536495    0.928044
C      4.218280   -1.600382    1.944291
C      5.533818   -1.507413    1.705245
C      6.132273   -1.351687    0.361783
O      7.342100   -1.199258    0.230813
C      2.795788   -0.319957    0.359282
C     -1.487341    1.133948    0.644532
C     -1.646326    2.583756    1.120692
C     -0.626331    0.341689    1.625786
C     -2.835846    0.483376    0.466782
C     -3.006224    0.168758   -0.877375
C     -4.147445   -0.454632   -1.349634
C     -5.145050   -0.765382   -0.421781
C     -4.982810   -0.447846    0.937764
C     -3.820856    0.180986    1.393449
H     -0.824824    0.802459   -3.475815
H     -1.988258   -0.556584   -3.362111
H     -2.571256    1.127341   -3.515168
H      0.269888    2.721927   -1.650148
H      2.396841    1.621945   -1.508413
H      1.096268   -3.562183   -0.820150
H      2.801532   -3.664796    0.916595
H      3.864827   -1.738801    2.962982
H      6.249822   -1.555455    2.518572
H      5.447959   -1.378455   -0.500944
H      3.282467    0.594620    0.689981
H     -2.145424    2.634768    2.095239
H     -0.672166    3.076084    1.219738
H     -2.239799    3.177605    0.414881
H     -1.083125    0.308857    2.622006
H      0.363625    0.793569    1.741706
H     -0.492047   -0.695325    1.300667
H     -4.277330   -0.716338   -2.393697
H     -6.053557   -1.267563   -0.749861
H     -5.768536   -0.706717    1.645992
H     -3.698123    0.410851    2.447951
