46
Conformer  9, Energy = 3.4234 kcal/mol
C     -1.982255    2.326194    2.010964
N     -1.839393    1.432281    0.858602
C     -0.919712    1.388981   -0.057838
C      0.208533    2.332532   -0.172564
C      1.456791    2.055505    0.231242
C      1.964571    0.788833    0.804685
C      1.411479    0.176356    1.963949
O      0.435550    0.637592    2.644589
C      2.039825   -1.026404    2.355348
C      3.127741   -1.594361    1.681688
C      3.650791   -0.962385    0.563673
C      4.766110   -1.556752   -0.170977
C      4.640220   -2.364323   -1.233471
C      3.342413   -2.787767   -1.801108
O      3.289479   -3.458051   -2.826512
C      3.074836    0.231127    0.132704
C     -1.251517    0.319185   -1.133333
C     -1.531187    1.004061   -2.477480
C     -0.170814   -0.747106   -1.293011
C     -2.516304   -0.276540   -0.569431
C     -2.827537    0.377770    0.617860
C     -3.933676    0.040483    1.377278
C     -4.746689   -0.995581    0.910045
C     -4.441349   -1.660039   -0.290279
C     -3.317895   -1.303716   -1.041276
H     -2.883527    2.928878    1.863010
H     -1.121862    2.996193    2.083105
H     -2.079837    1.736831    2.926515
H     -0.026065    3.321890   -0.549952
H      2.218892    2.827393    0.145252
H      1.662602   -1.539988    3.241579
H      3.549484   -2.523546    2.053155
H      5.754432   -1.294617    0.198475
H      5.514300   -2.758543   -1.739934
H      2.433982   -2.473056   -1.264667
H      3.480544    0.733409   -0.742327
H     -0.625529    1.473441   -2.878124
H     -1.894222    0.289386   -3.225022
H     -2.288315    1.791535   -2.379307
H      0.757182   -0.317015   -1.682200
H      0.054382   -1.240837   -0.341900
H     -0.481009   -1.529825   -1.995306
H     -4.170987    0.536707    2.311577
H     -5.619864   -1.300991    1.484036
H     -5.082636   -2.471117   -0.632231
H     -3.081957   -1.831489   -1.961084
