46
Conformer 57, Energy = 23.8368 kcal/mol
C      0.239183    2.043413   -1.712081
N     -0.986988    1.309599   -1.389999
C     -1.154375    0.136204   -0.856309
C     -0.122730   -0.756608   -0.312868
C      0.878574   -0.295335    0.450019
C      1.671246   -1.246124    1.250705
C      1.042892   -2.007139    2.276800
O     -0.200436   -1.935443    2.571063
C      1.908484   -2.870342    2.977600
C      3.280928   -2.975437    2.712214
C      3.858376   -2.199748    1.714191
C      5.294065   -2.299972    1.448647
C      6.198496   -1.336175    1.672425
C      5.887166   -0.022981    2.276213
O      6.728548    0.868778    2.307489
C      3.047732   -1.338692    0.975241
C     -2.657372   -0.256680   -0.823168
C     -3.138900   -0.495480    0.609394
C     -2.923230   -1.477745   -1.709002
C     -3.293159    0.976666   -1.408500
C     -2.295069    1.888640   -1.728191
C     -2.577518    3.130555   -2.270261
C     -3.919713    3.444662   -2.500283
C     -4.934583    2.525423   -2.185086
C     -4.626315    1.279702   -1.632948
H      0.369194    2.843598   -0.978944
H      1.097841    1.368780   -1.695388
H      0.158316    2.455797   -2.722061
H     -0.320195   -1.827012   -0.341668
H      1.068251    0.746924    0.670508
H      1.487494   -3.484091    3.775407
H      3.876055   -3.661893    3.307135
H      5.616671   -3.252021    1.033469
H      7.243306   -1.488028    1.424383
H      4.874616    0.113617    2.687826
H      3.479141   -0.736990    0.181088
H     -4.227208   -0.617082    0.653681
H     -2.692563   -1.401588    1.030959
H     -2.871431    0.339371    1.268085
H     -2.447211   -2.377211   -1.303624
H     -2.530289   -1.331776   -2.722415
H     -3.996146   -1.683735   -1.796773
H     -1.809035    3.856228   -2.511758
H     -4.188669    4.411725   -2.923031
H     -5.975555    2.790460   -2.367281
H     -5.417887    0.577699   -1.382906
