46
Conformer 21, Energy = 7.9588 kcal/mol
C      0.115637   -1.493002    0.571809
N     -0.869588   -0.410046    0.591086
C     -0.768178    0.832879    0.962850
C      0.448064    1.585684    1.358367
C      1.632743    1.568643    0.726690
C      2.026357    0.777902   -0.461684
C      1.259273    0.737148   -1.660939
O      0.162242    1.362394   -1.850578
C      1.790747   -0.088175   -2.674655
C      2.963034   -0.840655   -2.530652
C      3.677362   -0.791874   -1.341323
C      4.902519   -1.576302   -1.195075
C      5.095227   -2.639052   -0.400135
C      4.114047   -3.287591    0.508946
O      2.957051   -2.934865    0.690164
C      3.221996    0.039247   -0.320707
C     -2.172704    1.506105    1.015899
C     -2.561697    1.780278    2.476759
C     -2.256760    2.793891    0.195776
C     -3.044899    0.420696    0.446088
C     -2.252169   -0.690098    0.182662
C     -2.769760   -1.847138   -0.373233
C     -4.137600   -1.873193   -0.658425
C     -4.946619   -0.756350   -0.387733
C     -4.402029    0.405125    0.166659
H      0.992686   -1.203772    1.151588
H      0.371071   -1.736593   -0.460964
H     -0.319343   -2.370695    1.060697
H      0.315523    2.299968    2.164371
H      2.422006    2.225645    1.086392
H      1.254784   -0.148379   -3.623331
H      3.294266   -1.457471   -3.360287
H      5.719014   -1.237195   -1.829926
H      6.067009   -3.123560   -0.406768
H      4.524086   -4.162444    1.041781
H      3.780320    0.093861    0.610040
H     -2.447135    0.884995    3.099934
H     -3.604470    2.108001    2.559966
H     -1.934350    2.563484    2.916262
H     -1.515730    3.529629    0.526326
H     -3.246021    3.257905    0.286687
H     -2.090758    2.612001   -0.870178
H     -2.149950   -2.705383   -0.607309
H     -4.580663   -2.759474   -1.108743
H     -6.007596   -0.791440   -0.629585
H     -5.029043    1.271782    0.354431
