46
Conformer 56, Energy = 23.8368 kcal/mol
C      0.073053    2.472235   -0.964272
N     -1.097123    1.593886   -0.894240
C     -1.297393    0.505368   -0.212535
C     -0.329490   -0.222910    0.617831
C      0.931324   -0.431489    0.212586
C      1.749583   -1.448328    0.898091
C      1.356345   -2.816234    0.865847
O      0.310186   -3.253480    0.272581
C      2.226291   -3.690681    1.547041
C      3.395452   -3.271056    2.196699
C      3.753193   -1.928249    2.187655
C      4.981919   -1.494256    2.853721
C      6.071893   -1.009384    2.242301
C      6.220287   -0.882834    0.776720
O      7.176349   -0.287090    0.291779
C      2.921563   -1.013021    1.543175
C     -2.754694   -0.005467   -0.385089
C     -2.784046   -1.411464   -0.987949
C     -3.512831    0.044174    0.945004
C     -3.305640    1.008883   -1.352318
C     -2.313500    1.936217   -1.645222
C     -2.520883    2.984368   -2.525189
C     -3.783037    3.091869   -3.115504
C     -4.793547    2.161376   -2.819935
C     -4.559653    1.107630   -1.933019
H      0.578042    2.304516   -1.919022
H     -0.251391    3.513351   -0.877832
H      0.750874    2.264386   -0.133573
H     -0.719984   -0.795063    1.457915
H      1.371184   -0.035007   -0.693076
H      1.979193   -4.753287    1.562100
H      4.012845   -4.014990    2.691387
H      4.971568   -1.586868    3.937308
H      6.933833   -0.689211    2.817419
H      5.438213   -1.341141    0.150896
H      3.177284    0.042172    1.539853
H     -2.401280   -2.153476   -0.280224
H     -3.802613   -1.713087   -1.257589
H     -2.169044   -1.473700   -1.893646
H     -3.106497   -0.675402    1.664077
H     -3.447762    1.036462    1.407439
H     -4.575282   -0.188832    0.810129
H     -1.751137    3.706784   -2.772363
H     -3.990237    3.899526   -3.816234
H     -5.769705    2.259111   -3.293883
H     -5.343702    0.386208   -1.716842
