46
Conformer 11, Energy = 3.4440 kcal/mol
C     -2.002395    1.843848    2.578023
N     -2.053824    0.852602    1.499896
C     -1.390739   -0.254327    1.349203
C     -0.442411   -0.814065    2.331087
C      0.890513   -0.721392    2.219023
C      1.669448   -0.113676    1.116216
C      1.488380    1.225737    0.675963
O      0.659693    2.060070    1.171965
C      2.327308    1.610946   -0.390535
C      3.285850    0.771986   -0.976146
C      3.469890   -0.520954   -0.501355
C      4.444213   -1.453402   -1.086122
C      5.630872   -1.075003   -1.581384
C      6.547914   -2.085028   -2.141984
O      7.636787   -1.774374   -2.608340
C      2.649494   -0.956501    0.540792
C     -1.853955   -1.015418    0.077449
C     -2.529426   -2.333219    0.479079
C     -0.733875   -1.275053   -0.927306
C     -2.867581   -0.051089   -0.484691
C     -2.946340    1.054309    0.355921
C     -3.786800    2.121500    0.093551
C     -4.570535    2.058030   -1.061610
C     -4.499685    0.943482   -1.914948
C     -3.642697   -0.123402   -1.631170
H     -2.972583    1.845331    3.084071
H     -1.803304    2.834429    2.160527
H     -1.229701    1.578352    3.303811
H     -0.875669   -1.262976    3.218237
H      1.512151   -1.127076    3.014619
H      2.233279    2.626593   -0.779189
H      3.872780    1.163948   -1.801069
H      4.150177   -2.499973   -1.077925
H      5.983049   -0.050528   -1.591401
H      6.198759   -3.130578   -2.119588
H      2.766231   -1.967605    0.923717
H     -2.983300   -2.832109   -0.384891
H     -3.321786   -2.171009    1.219928
H     -1.807727   -3.028097    0.923307
H     -0.230847   -0.348070   -1.221504
H      0.018276   -1.956168   -0.517552
H     -1.118734   -1.735994   -1.844699
H     -3.839337    2.992280    0.737329
H     -5.235534    2.882841   -1.311854
H     -5.112019    0.918026   -2.815151
H     -3.584262   -0.974710   -2.303302
