46
Conformer 22, Energy = 7.9588 kcal/mol
C      0.070235   -0.638612   -1.387017
N     -0.896463    0.095696   -0.568408
C     -0.788512    1.215532    0.085555
C      0.424019    2.038189    0.320925
C      1.631929    1.583951    0.691589
C      2.058022    0.181979    0.904555
C      1.337623   -0.737333    1.719528
O      0.259580   -0.469429    2.349149
C      1.894067   -2.032544    1.783103
C      3.046915   -2.419181    1.088355
C      3.715128   -1.502574    0.288061
C      4.920167   -1.908406   -0.433677
C      5.063711   -2.045932   -1.759945
C      4.037016   -1.837915   -2.814636
O      2.879999   -1.484787   -2.634342
C      3.234553   -0.197069    0.221082
C     -2.182404    1.688655    0.597374
C     -2.212592    1.962709    2.101384
C     -2.623258    2.938820   -0.179371
C     -3.050062    0.517830    0.223394
C     -2.266653   -0.417548   -0.442199
C     -2.781784   -1.620902   -0.891913
C     -4.137730   -1.870783   -0.663948
C     -4.937593   -0.926241    0.001774
C     -4.395354    0.279487    0.454708
H      0.928835   -0.002174   -1.603268
H     -0.398286   -0.885085   -2.345298
H      0.361505   -1.556624   -0.873576
H      0.272351    3.112450    0.301628
H      2.417633    2.307931    0.897734
H      1.394496   -2.777597    2.404546
H      3.399672   -3.441055    1.187380
H      5.766396   -2.128878    0.214383
H      6.026647   -2.363980   -2.148211
H      4.411089   -2.035907   -3.833597
H      3.757069    0.531424   -0.393143
H     -3.196620    2.328259    2.418043
H     -1.472604    2.718088    2.386899
H     -2.008335    1.060855    2.686052
H     -2.000286    3.804387    0.071305
H     -2.548257    2.788086   -1.263188
H     -3.662765    3.205074    0.044761
H     -2.167993   -2.365866   -1.385707
H     -4.577913   -2.811285   -0.989956
H     -5.988795   -1.145310    0.181723
H     -5.014396    0.996130    0.986411
