46
Conformer 20, Energy = 4.7051 kcal/mol
C     -0.581558   -1.752331    0.567103
N     -1.363516   -0.517410    0.613319
C     -1.057263    0.678064    1.025253
C      0.249359    1.189588    1.507506
C      1.461334    0.991589    0.964602
C      1.864165    0.194461   -0.220006
C      1.152919    0.187362   -1.452508
O      0.086574    0.847347   -1.691129
C      1.708495   -0.639890   -2.452724
C      2.872558   -1.399665   -2.281563
C      3.565705   -1.349492   -1.080578
C      4.779873   -2.152912   -0.913559
C      5.920003   -1.647464   -0.423232
C      7.122136   -2.500676   -0.296362
O      7.131290   -3.704469   -0.517870
C      3.053041   -0.555286   -0.053741
C     -2.312310    1.602208    1.013899
C     -2.099613    2.880100    0.200525
C     -2.725592    1.946142    2.452473
C     -3.339749    0.703036    0.383047
C     -2.753530   -0.532217    0.135110
C     -3.448827   -1.567759   -0.465203
C     -4.782447   -1.336886   -0.813511
C     -5.383386   -0.092306   -0.559543
C     -4.661218    0.942196    0.041143
H     -0.381137   -2.021277   -0.472179
H      0.344159   -1.636996    1.132706
H     -1.159711   -2.547836    1.048291
H      0.185861    1.893673    2.332099
H      2.301637    1.510037    1.425441
H      1.208071   -0.683137   -3.422074
H      3.229531   -2.003449   -3.111190
H      4.721509   -3.188236   -1.243606
H      6.025016   -0.611653   -0.125188
H      8.029521   -1.962458    0.024211
H      3.571587   -0.523879    0.901396
H     -1.878507    2.664349   -0.849370
H     -1.268884    3.473830    0.597141
H     -2.994453    3.513381    0.214392
H     -3.691344    2.464056    2.479958
H     -2.816589    1.045670    3.071995
H     -1.989375    2.598394    2.934697
H     -2.989669   -2.524373   -0.687060
H     -5.359568   -2.120998   -1.300287
H     -6.419687    0.072235   -0.850422
H     -5.126413    1.907849    0.216596
