46
Conformer  1, Energy = 2.3891 kcal/mol
C     -0.266525    0.298894    1.607401
N     -1.230391    0.426298    0.515237
C     -1.102543    0.894418   -0.691758
C      0.120942    1.379889   -1.375499
C      1.335203    0.807503   -1.396923
C      1.833192   -0.425331   -0.737876
C      1.105487   -1.646375   -0.679672
O     -0.067003   -1.829806   -1.149669
C      1.780691   -2.707717   -0.040270
C      3.065578   -2.600660    0.507012
C      3.754632   -1.396473    0.445750
C      5.115525   -1.321167    0.994066
C      5.607703   -0.234691    1.604497
C      6.983058   -0.246158    2.136493
O      7.449237    0.730105    2.710926
C      3.137491   -0.320858   -0.195820
C     -2.484905    0.952334   -1.409040
C     -2.491859    0.199997   -2.740903
C     -2.909797    2.413335   -1.617109
C     -3.376962    0.295313   -0.391810
C     -2.613413   -0.026096    0.723845
C     -3.155728   -0.665174    1.825498
C     -4.517721   -0.976357    1.788988
C     -5.297038   -0.648313    0.666639
C     -4.728038   -0.009333   -0.438108
H      0.645001    0.851922    1.376039
H     -0.054346   -0.757035    1.788447
H     -0.699677    0.747238    2.507376
H     -0.029564    2.242847   -2.017842
H      2.094201    1.284234   -2.017203
H      1.277840   -3.674948    0.020608
H      3.504322   -3.478887    0.971965
H      5.708701   -2.227241    0.891990
H      5.048452    0.680656    1.752028
H      7.560538   -1.173900    1.989682
H      3.674110    0.619768   -0.294483
H     -1.754193    0.612507   -3.437779
H     -2.264068   -0.862590   -2.611256
H     -3.473468    0.259201   -3.225560
H     -3.942853    2.483802   -1.976959
H     -2.845153    2.988515   -0.685486
H     -2.271073    2.914488   -2.352539
H     -2.560258   -0.943543    2.687469
H     -4.979386   -1.491214    2.629598
H     -6.353681   -0.910820    0.652015
H     -5.332265    0.223938   -1.310004
