46
Conformer 34, Energy = 15.2682 kcal/mol
C     -0.310898    2.896511   -0.714284
N     -1.283093    1.797249   -0.758748
C     -1.273509    0.659752   -0.132163
C     -0.211384    0.226406    0.774554
C      0.740126   -0.547307    0.235681
C      2.082150   -0.523004    0.836395
C      2.911347    0.615310    0.612260
O      2.572019    1.631349   -0.089966
C      4.174051    0.543350    1.231693
C      4.597816   -0.550484    2.000289
C      3.757289   -1.643290    2.183404
C      4.209830   -2.791956    2.967501
C      4.577508   -3.978426    2.463876
C      4.612596   -4.299881    1.020916
O      4.872640   -5.435972    0.638897
C      2.490251   -1.626940    1.603762
C     -2.542404   -0.169389   -0.434507
C     -2.210151   -1.515880   -1.080951
C     -3.365884   -0.361268    0.842224
C     -3.249864    0.737397   -1.409135
C     -2.481786    1.883987   -1.597955
C     -2.863206    2.892418   -2.464161
C     -4.071039    2.731915   -3.148424
C     -4.857334    1.582619   -2.956504
C     -4.449116    0.571573   -2.082495
H     -0.843556    3.851123   -0.752889
H      0.359061    2.803138   -1.571659
H      0.229586    2.867352    0.232702
H     -0.028721    0.788126    1.686154
H      0.691490   -0.994444   -0.750976
H      4.862096    1.379726    1.101105
H      5.592209   -0.528113    2.436629
H      4.239624   -2.630849    4.042364
H      4.890261   -4.785191    3.117756
H      4.396183   -3.480700    0.317067
H      1.816065   -2.467305    1.740322
H     -1.678978   -2.173085   -0.383769
H     -1.573612   -1.391170   -1.965059
H     -3.116894   -2.042393   -1.400311
H     -2.828815   -0.979521    1.570441
H     -3.583455    0.597220    1.328867
H     -4.324165   -0.849719    0.631913
H     -2.263655    3.780921   -2.630180
H     -4.408598    3.501100   -3.841795
H     -5.794172    1.477397   -3.502624
H     -5.059909   -0.317138   -1.948217
