46
Conformer 37, Energy = 15.5244 kcal/mol
C     -0.668854    0.880388    1.486474
N     -1.451073    0.524206    0.303693
C     -1.677744   -0.625766   -0.260609
C     -1.130408   -1.958146    0.092175
C      0.141283   -2.276959    0.380767
C      1.356478   -1.429999    0.473229
C      1.676545   -0.390376   -0.443950
O      0.951998   -0.025500   -1.430489
C      2.904609    0.259938   -0.191734
C      3.760063   -0.060588    0.872120
C      3.428876   -1.083404    1.748546
C      4.240582   -1.400771    2.929432
C      5.553666   -1.664146    3.003970
C      6.519678   -1.765586    1.883387
O      6.227711   -2.016166    0.724751
C      2.225954   -1.760525    1.541973
C     -2.708981   -0.476606   -1.419387
C     -2.183468   -1.016399   -2.750759
C     -4.027647   -1.168337   -1.044024
C     -2.901326    1.014624   -1.458138
C     -2.133456    1.585525   -0.450450
C     -2.085362    2.954381   -0.250205
C     -2.849996    3.760846   -1.097664
C     -3.633956    3.189532   -2.114343
C     -3.662644    1.805424   -2.303970
H     -1.295458    1.488971    2.146505
H      0.211889    1.452375    1.186617
H     -0.388780   -0.016194    2.041323
H     -1.834107   -2.779501   -0.007303
H      0.359858   -3.332288    0.544550
H      3.215479    1.054797   -0.872193
H      4.683122    0.499308    0.982595
H      3.671128   -1.403261    3.857229
H      6.001135   -1.837422    3.977448
H      7.569644   -1.619403    2.187505
H      1.954335   -2.566801    2.219403
H     -2.927257   -0.900703   -3.547835
H     -1.281268   -0.490089   -3.077668
H     -1.936619   -2.081415   -2.681621
H     -3.911299   -2.256909   -1.005924
H     -4.817998   -0.947688   -1.770880
H     -4.385997   -0.845496   -0.058991
H     -1.465976    3.408011    0.515022
H     -2.827808    4.842966   -0.982554
H     -4.211806    3.835619   -2.773271
H     -4.254745    1.372048   -3.104750
