46
Conformer 24, Energy = 11.4410 kcal/mol
C     -2.007285   -0.810995    3.087654
N     -1.915764   -0.668176    1.632426
C     -1.094635   -1.216503    0.788318
C     -0.062122   -2.210628    1.137579
C      1.236174   -1.911696    1.286315
C      1.883773   -0.597683    1.076616
C      1.499645    0.581660    1.773840
O      0.589211    0.650832    2.666868
C      2.232984    1.732110    1.418843
C      3.271811    1.737258    0.477181
C      3.638230    0.565484   -0.176195
C      4.801899    0.588757   -1.070347
C      4.971785    0.053401   -2.288319
C      4.005113   -0.700529   -3.125213
O      2.820143   -0.867992   -2.878989
C      2.949427   -0.601385    0.143925
C     -1.454887   -0.831664   -0.672338
C     -1.906373   -2.079741   -1.442636
C     -0.325813   -0.124640   -1.415541
C     -2.616055    0.103893   -0.448291
C     -2.847801    0.207601    0.918735
C     -3.845179    1.013663    1.438163
C     -4.631331    1.733050    0.534269
C     -4.406846    1.630778   -0.849335
C     -3.390261    0.813672   -1.351938
H     -2.961094   -1.294754    3.320292
H     -1.970578    0.174922    3.559206
H     -1.197012   -1.441511    3.462954
H     -0.407593   -3.218599    1.338252
H      1.929144   -2.697557    1.576158
H      1.992130    2.672070    1.917650
H      3.788730    2.672203    0.283474
H      5.645156    1.135387   -0.646621
H      5.936615    0.181392   -2.771334
H      4.454371   -1.121537   -4.041996
H      3.227847   -1.534751   -0.337554
H     -2.289841   -1.822189   -2.436837
H     -1.075543   -2.781740   -1.578349
H     -2.701084   -2.615902   -0.909935
H      0.526862   -0.793773   -1.557908
H     -0.644947    0.207130   -2.410398
H      0.022842    0.762543   -0.876928
H     -4.017775    1.110266    2.504045
H     -5.419291    2.387774    0.902191
H     -5.023367    2.208026   -1.536282
H     -3.211412    0.752585   -2.421670
