46
Conformer 46, Energy = 20.9422 kcal/mol
C     -2.641026    1.803605    1.692755
N     -2.304689    1.402990    0.312062
C     -1.262809    0.784084   -0.166739
C     -0.089025    0.431398    0.642657
C      0.833092   -0.488293    0.331599
C      1.702125   -1.004413    1.414088
C      1.133673   -1.498882    2.633750
O     -0.118452   -1.497652    2.913008
C      2.073997   -2.023438    3.544964
C      3.453452   -2.071852    3.293555
C      3.962531   -1.589270    2.092336
C      5.399237   -1.659874    1.822886
C      5.987808   -2.543923    1.004866
C      5.298191   -3.604074    0.243090
O      5.930898   -4.316361   -0.532692
C      3.084770   -1.053570    1.150038
C     -1.439327    0.487895   -1.687697
C     -1.588810   -1.007780   -1.994086
C     -0.322998    1.143182   -2.504661
C     -2.764173    1.160406   -1.960587
C     -3.263883    1.669087   -0.768122
C     -4.481070    2.325351   -0.698331
C     -5.209118    2.463635   -1.883818
C     -4.713042    1.948286   -3.094955
C     -3.480501    1.291573   -3.141559
H     -1.803702    1.628302    2.368861
H     -2.876093    2.880341    1.700775
H     -3.502323    1.215264    2.028729
H     -0.042770    0.841278    1.652178
H      0.910409   -1.017500   -0.607435
H      1.708349   -2.436019    4.487838
H      4.106115   -2.505140    4.047848
H      6.012632   -0.922046    2.341634
H      7.057914   -2.524830    0.850227
H      4.212088   -3.719143    0.398236
H      3.467881   -0.669559    0.203062
H     -2.359328   -1.472990   -1.370357
H     -0.667294   -1.570663   -1.833895
H     -1.868912   -1.166856   -3.045890
H     -0.481971    1.049776   -3.590706
H      0.650689    0.700718   -2.286578
H     -0.243626    2.211427   -2.276698
H     -4.884508    2.726551    0.232679
H     -6.173757    2.972912   -1.871275
H     -5.299042    2.062291   -4.003060
H     -3.103601    0.896291   -4.084580
