46
Conformer 35, Energy = 15.2682 kcal/mol
C     -0.109554    2.711703   -1.296712
N     -1.114157    1.642190   -1.247483
C     -0.955935    0.368226   -1.051051
C      0.333997   -0.274265   -0.803437
C      0.654685   -0.469182    0.482466
C      2.078594   -0.520047    0.846299
C      2.822967    0.696104    0.867573
O      2.334815    1.848727    0.595929
C      4.176405    0.540885    1.224517
C      4.756080   -0.696012    1.542066
C      3.987532   -1.854865    1.516930
C      4.589239   -3.140436    1.869464
C      4.386661   -3.802934    3.016899
C      3.539950   -3.314373    4.126450
O      3.328808   -4.017336    5.109064
C      2.643161   -1.767561    1.161012
C     -2.296682   -0.394950   -1.145628
C     -2.269975   -1.367155   -2.328448
C     -2.637893   -1.123358    0.156034
C     -3.254765    0.741929   -1.395121
C     -2.537969    1.935603   -1.435396
C     -3.154177    3.159574   -1.622248
C     -4.541997    3.164302   -1.785889
C     -5.272165    1.963478   -1.756541
C     -4.630461    0.738084   -1.558116
H     -0.073477    3.200147   -0.320616
H      0.856422    2.292010   -1.580435
H     -0.388078    3.433056   -2.070387
H      1.098398   -0.246437   -1.574691
H     -0.023864   -0.338237    1.318058
H      4.806002    1.430888    1.262993
H      5.806965   -0.725482    1.814982
H      5.250898   -3.559677    1.115408
H      4.863622   -4.760422    3.195710
H      3.114309   -2.303261    4.027589
H      2.027362   -2.661503    1.128667
H     -3.247554   -1.837855   -2.483021
H     -1.996823   -0.859011   -3.261206
H     -1.536673   -2.165600   -2.168028
H     -2.604455   -0.445035    1.016921
H     -3.642691   -1.559809    0.120201
H     -1.933956   -1.939286    0.353148
H     -2.606384    4.095592   -1.638369
H     -5.068018    4.106500   -1.933949
H     -6.353856    1.991236   -1.883642
H     -5.205310   -0.183631   -1.527961
