46
Conformer 26, Energy = 12.4567 kcal/mol
C      0.225746    2.550286   -0.160405
N     -0.640785    1.370482   -0.094445
C     -1.102895    0.718382    0.930205
C     -0.754848    0.905313    2.353648
C      0.486883    0.767867    2.838859
C      1.689863    0.442178    2.050661
C      2.631068    1.462988    1.747216
O      2.515759    2.682419    2.112368
C      3.726524    1.040877    0.967470
C      3.885620   -0.270870    0.503424
C      2.941278   -1.239526    0.821064
C      3.107968   -2.609469    0.340540
C      2.555860   -3.130643   -0.764371
C      1.643824   -2.431181   -1.703307
O      0.906243   -1.500377   -1.408969
C      1.850692   -0.885078    1.609775
C     -2.185961   -0.305319    0.496156
C     -1.823168   -1.729998    0.917061
C     -3.554686    0.093443    1.062068
C     -2.166142   -0.142807   -0.999095
C     -1.233398    0.835916   -1.327255
C     -0.975368    1.196892   -2.637842
C     -1.698169    0.546846   -3.641744
C     -2.647917   -0.437538   -3.317972
C     -2.887511   -0.792719   -1.987605
H      1.207550    2.249262   -0.528458
H     -0.217385    3.274809   -0.851364
H      0.261197    3.029434    0.817414
H     -1.566448    1.137153    3.034428
H      0.694613    0.960612    3.889306
H      4.488789    1.777267    0.708868
H      4.757486   -0.511134   -0.096885
H      3.781757   -3.214904    0.942713
H      2.801602   -4.147253   -1.052747
H      1.655913   -2.846603   -2.724990
H      1.120504   -1.638550    1.885857
H     -1.765881   -1.821398    2.007367
H     -2.566385   -2.453174    0.562084
H     -0.853512   -2.036909    0.513340
H     -3.801929    1.134572    0.821665
H     -4.355147   -0.537574    0.658940
H     -3.577702   -0.001712    2.153343
H     -0.231667    1.941616   -2.899236
H     -1.519278    0.797033   -4.685926
H     -3.195929   -0.935702   -4.116179
H     -3.614630   -1.562694   -1.747045
