46
Conformer 53, Energy = 23.7066 kcal/mol
C      0.184808    2.308661   -1.316930
N     -1.023060    1.535507   -1.019770
C     -1.184195    0.472569   -0.290374
C     -0.138830   -0.309911    0.375357
C      0.956795   -0.715566   -0.282647
C      1.843289   -1.724620    0.329486
C      1.335892   -2.995264    0.725339
O      0.118420   -3.364811    0.588911
C      2.295530   -3.859129    1.291204
C      3.644486   -3.518179    1.459607
C      4.100785   -2.269239    1.058003
C      5.507983   -1.910360    1.240177
C      5.970905   -0.965570    2.071012
C      5.121372   -0.166923    2.979996
O      5.581372    0.791421    3.591578
C      3.199639   -1.377234    0.477120
C     -2.681563    0.075571   -0.193439
C     -3.184308    0.172753    1.249620
C     -2.921667   -1.320226   -0.773101
C     -3.317206    1.133493   -1.057366
C     -2.324128    1.977602   -1.539580
C     -2.603715    3.042490   -2.378157
C     -3.939993    3.254199   -2.728144
C     -4.950845    2.407968   -2.241342
C     -4.644245    1.335934   -1.399484
H     -0.017024    3.369887   -1.144612
H      0.462346    2.133763   -2.359662
H      0.999636    2.007464   -0.655061
H     -0.371181   -0.733044    1.351155
H      1.199445   -0.450356   -1.303694
H      1.968876   -4.849185    1.613277
H      4.314330   -4.245379    1.908712
H      6.207048   -2.478353    0.630510
H      7.031646   -0.746669    2.126194
H      4.066684   -0.469472    3.076739
H      3.544676   -0.403334    0.143144
H     -2.712821   -0.581843    1.888634
H     -2.961696    1.153456    1.687019
H     -4.268463    0.022940    1.307830
H     -2.492573   -1.418020   -1.777513
H     -2.465905   -2.093405   -0.147068
H     -3.991418   -1.547040   -0.846357
H     -1.836500    3.701890   -2.768073
H     -4.207000    4.079377   -3.386990
H     -5.986522    2.587382   -2.528261
H     -5.431106    0.681318   -1.032998
