46
Conformer  5, Energy = 2.8254 kcal/mol
C     -0.077334    1.411484    0.640395
N     -1.186088    0.458383    0.661590
C     -1.251965   -0.772771    1.076807
C     -0.164594   -1.639011    1.594871
C      1.068274   -1.805844    1.089864
C      1.724994   -1.171526   -0.079832
C      1.085976   -0.958939   -1.332783
O     -0.124463   -1.260194   -1.603611
C      1.900676   -0.363549   -2.319682
C      3.237216    0.002912   -2.115350
C      3.839465   -0.213885   -0.882939
C      5.248093    0.111234   -0.625755
C      5.834677    1.230358   -1.071943
C      7.253340    1.490573   -0.764757
O      7.803201    2.526129   -1.118492
C      3.081334   -0.818585    0.121066
C     -2.719998   -1.293574    1.023889
C     -3.257612   -1.499403    2.447620
C     -2.862012   -2.580318    0.208999
C     -3.423855   -0.137070    0.368756
C     -2.497726    0.874265    0.144121
C     -2.845299    2.065086   -0.470131
C     -4.177978    2.229812   -0.857434
C     -5.121041    1.213803   -0.627322
C     -4.747487    0.016223   -0.011867
H     -0.410841    2.342978    1.109110
H      0.759684    1.033585    1.229291
H      0.220182    1.605802   -0.392308
H     -0.454249   -2.289317    2.415316
H      1.704975   -2.544798    1.575984
H      1.469544   -0.192545   -3.308192
H      3.786753    0.432179   -2.947897
H      5.793669   -0.613495   -0.026450
H      5.323243    1.988525   -1.652746
H      7.785107    0.708146   -0.198421
H      3.542743   -1.014057    1.086601
H     -2.756574   -2.335773    2.947046
H     -3.102170   -0.609618    3.069756
H     -4.332350   -1.715243    2.443793
H     -3.902109   -2.926491    0.191053
H     -2.252256   -3.388588    0.627143
H     -2.554645   -2.440807   -0.832079
H     -2.122404    2.846815   -0.673683
H     -4.488753    3.146076   -1.356182
H     -6.151736    1.355972   -0.948390
H     -5.477606   -0.772424    0.145175
