46
Conformer 41, Energy = 16.7934 kcal/mol
C     -1.986419    1.716372    1.643446
N     -1.966994    1.384284    0.213374
C     -1.015159    0.871994   -0.506716
C      0.296461    0.486284    0.012765
C      0.431597   -0.803008    0.350759
C      1.380878   -1.136789    1.422920
C      0.979160   -0.911220    2.771781
O     -0.169134   -0.462137    3.120270
C      1.965909   -1.223151    3.725325
C      3.235897   -1.719610    3.391524
C      3.580221   -1.946620    2.061298
C      4.917884   -2.455026    1.741226
C      5.122592   -3.465033    0.884760
C      6.492199   -3.954750    0.614458
O      7.506287   -3.438219    1.064674
C      2.646566   -1.639340    1.071865
C     -1.424622    0.752644   -1.992449
C     -1.391972   -0.695919   -2.484280
C     -0.535138    1.647566   -2.860170
C     -2.838414    1.273456   -1.941504
C     -3.142488    1.624753   -0.628455
C     -4.384195    2.112514   -0.263884
C     -5.340849    2.257587   -1.272048
C     -5.039824    1.914451   -2.601650
C     -3.780747    1.415893   -2.946864
H     -2.517717    0.925600    2.177398
H     -2.497632    2.673812    1.780954
H     -0.965236    1.839525    2.006522
H      0.944464    1.248275    0.436210
H     -0.283897   -1.584252    0.118857
H      1.732264   -1.073485    4.780113
H      3.936385   -1.934186    4.193863
H      5.748082   -1.986494    2.266133
H      4.314995   -3.977202    0.376929
H      6.535656   -4.839667   -0.041885
H      2.894654   -1.773586    0.023863
H     -0.368927   -1.087117   -2.505896
H     -1.797576   -0.784577   -3.498692
H     -1.982062   -1.354129   -1.835483
H      0.503065    1.296703   -2.856333
H     -0.528743    2.682390   -2.496889
H     -0.877641    1.665235   -3.901075
H     -4.633960    2.373307    0.758959
H     -6.332650    2.636430   -1.028840
H     -5.802034    2.033457   -3.370949
H     -3.561187    1.145498   -3.976187
