46
Conformer 15, Energy = 4.1765 kcal/mol
C     -0.112663    1.861643    0.164427
N     -1.175034    0.895161    0.438184
C     -1.176929   -0.202292    1.136527
C     -0.043762   -0.867049    1.824716
C      1.191054   -1.097591    1.350730
C      1.812620   -0.746422    0.049558
C      1.154674   -0.859251   -1.208001
O     -0.050326   -1.244361   -1.376685
C      1.940343   -0.503364   -2.327193
C      3.271217   -0.079245   -2.245026
C      3.890700    0.002731   -1.008128
C      5.291529    0.410247   -0.913229
C      6.325255   -0.416636   -0.702876
C      6.210699   -1.884318   -0.559636
O      7.195624   -2.563468   -0.290391
C      3.161473   -0.329332    0.133242
C     -2.617589   -0.787617    1.238677
C     -2.701837   -2.236321    0.754789
C     -3.132189   -0.673817    2.681045
C     -3.383494    0.146143    0.342179
C     -2.510324    1.115836   -0.135643
C     -2.921828    2.109064   -1.007601
C     -4.264627    2.116001   -1.394957
C     -5.154371    1.142200   -0.910504
C     -4.716595    0.143979   -0.036195
H      0.161080    1.817073   -0.891966
H      0.749842    1.669976    0.804427
H     -0.482899    2.862907    0.407242
H     -0.293181   -1.307984    2.785751
H      1.864103   -1.665617    1.993347
H      1.488222   -0.579950   -3.318199
H      3.804651    0.159375   -3.160485
H      5.471931    1.475617   -1.032564
H      7.337598   -0.032626   -0.636383
H      5.213080   -2.328673   -0.703608
H      3.645776   -0.268835    1.105590
H     -2.050333   -2.892996    1.341556
H     -2.408357   -2.334255   -0.295033
H     -3.723786   -2.624374    0.838276
H     -2.586134   -1.343554    3.354286
H     -4.194899   -0.933724    2.749994
H     -3.015723    0.344515    3.071379
H     -2.240247    2.851912   -1.405877
H     -4.624945    2.871974   -2.090312
H     -6.193848    1.156721   -1.234426
H     -5.405554   -0.616889    0.318995
