32
Conformer  1, Energy = 92.6881 kcal/mol
C     -1.993132    0.059245   -0.112956
C      2.763866   -1.197620   -0.296394
C      2.628715    1.053393    0.530378
H      2.080283    1.918901    0.884981
C     -0.547586    0.394739   -0.169466
C     -2.664110   -1.085310    0.296644
H     -2.138102   -1.971036    0.634923
C      4.026004    1.072239    0.628418
C      0.549519   -0.392987   -0.156948
C     -4.141340    1.203119   -0.400728
H     -4.707733    2.098263   -0.640466
C      1.987759   -0.064087    0.012301
C     -2.749812    1.210293   -0.404597
C     -4.064776   -1.107209    0.302924
C     -4.799408    0.026189   -0.057354
H     -5.886041   -0.007079   -0.043843
C      4.784510   -0.039635    0.250953
H      5.867935   -0.009267    0.336564
C      4.152219   -1.193316   -0.202203
H      4.734602   -2.074044   -0.456578
C      0.516751   -1.868596   -0.517577
C     -0.494374    1.888788   -0.440631
C     -1.898123    2.418792   -0.645140
H      4.523377    1.959943    1.013080
H     -4.584284   -2.014878    0.602278
C      1.931775   -2.388440   -0.661472
O      0.498782    2.585773   -0.568754
O     -0.464737   -2.555047   -0.750011
H     -2.105380    3.199885    0.091011
H     -2.012120    2.780638   -1.670275
H      2.112465   -2.690160   -1.696434
H      2.092497   -3.211489    0.039772
