32
Conformer  2, Energy = 97.7445 kcal/mol
C     -1.616656    0.347734   -0.229331
C      2.779342   -0.876948    0.410038
C      1.502263   -0.472010   -1.593773
H      0.670707   -0.020528   -2.124008
C     -0.539669    0.635602    0.736191
C     -1.762292   -0.670915   -1.161283
H     -1.000824   -1.430458   -1.301749
C      2.525383   -1.075028   -2.334017
C      0.728685    0.195209    0.805931
C     -3.882111    1.127642   -0.707819
H     -4.712682    1.798049   -0.506274
C      1.598662   -0.426820   -0.209558
C     -2.705616    1.201003    0.028771
C     -2.941111   -0.752262   -1.911040
C     -3.988101    0.151603   -1.696291
H     -4.901311    0.069157   -2.281324
C      3.661404   -1.587574   -1.696813
H      4.451753   -2.045163   -2.287555
C      3.803062   -1.475111   -0.315420
H      4.705933   -1.827740    0.174876
C      1.473479    0.088996    2.123377
C     -1.054151    1.754122    1.622691
C     -2.466533    2.110276    1.201478
H      2.448317   -1.126487   -3.417994
H     -3.054874   -1.539567   -2.653200
C      2.816549   -0.571808    1.881325
O     -0.416109    2.394666    2.442087
O      1.037324    0.335812    3.235877
H     -3.159883    1.896577    2.018800
H     -2.506881    3.157782    0.891380
H      2.885427   -1.493900    2.464470
H      3.620516    0.128092    2.122555
