32
Conformer  3, Energy = 97.7445 kcal/mol
C     -1.539867    0.573849   -0.341210
C      2.880201   -0.579936    0.263074
C      1.122383   -1.590657   -1.040264
H      0.075383   -1.773603   -1.256580
C     -0.550700    0.603121    0.752265
C     -1.382406    0.447727   -1.714778
H     -0.405492    0.322604   -2.169152
C      2.090229   -2.356440   -1.699973
C      0.739716    0.227694    0.789858
C     -3.928824    0.990080   -0.639753
H     -4.903522    1.236079   -0.228216
C      1.521875   -0.652935   -0.097675
C     -2.806475    0.903995    0.175728
C     -2.505950    0.529149   -2.545071
C     -3.773681    0.783000   -2.008699
H     -4.635409    0.852156   -2.668742
C      3.446987   -2.218965   -1.384403
H      4.185852   -2.828156   -1.900135
C      3.849774   -1.337543   -0.383493
H      4.896767   -1.265762   -0.103198
C      1.736757    0.864298    1.739754
C     -1.317435    0.978824    2.006307
C     -2.772235    1.210062    1.646895
H      1.784103   -3.082422   -2.450193
H     -2.390648    0.416367   -3.620979
C      3.122247    0.328404    1.435897
O     -0.904983    0.955066    3.154403
O      1.526184    1.775410    2.523552
H     -3.405408    0.511792    2.200581
H     -3.039387    2.251460    1.843212
H      3.500002   -0.226789    2.298149
H      3.783959    1.152069    1.155239
