32
Conformer  0, Energy = 92.6881 kcal/mol
C     -1.987758    0.064092   -0.279034
C      2.749810   -1.210291    0.137879
C      2.664117    1.085312   -0.563364
H      2.138112    1.971039   -0.901644
C     -0.549519    0.392994   -0.109786
C     -2.628710   -1.053387   -0.797119
H     -2.080275   -1.918890   -1.151733
C      4.064784    1.107205   -0.569649
C      0.547587   -0.394732   -0.097261
C     -4.152223    1.193308   -0.064509
H     -4.734610    2.074031    0.189877
C      1.993133   -0.059241   -0.153766
C     -2.763869    1.197619    0.029673
C     -4.026000   -1.072241   -0.895152
C     -4.784509    0.039626   -0.517671
H     -5.867934    0.009253   -0.603276
C      4.799410   -0.026196   -0.209371
H      5.886043    0.007064   -0.222886
C      4.141337   -1.203122    0.134012
H      4.707725   -2.098268    0.373756
C      0.494370   -1.888782    0.173908
C     -0.516754    1.868604    0.250837
C     -1.931780    2.388441    0.394749
H      4.584299    2.014869   -0.869006
H     -4.523368   -1.959945   -1.279822
C      1.898118   -2.418788    0.378424
O      0.464733    2.555063    0.483255
O     -0.498789   -2.585766    0.302026
H     -2.112461    2.690157    1.429714
H     -2.092510    3.211491   -0.306494
H      2.105378   -3.199885   -0.357725
H      2.012112   -2.780633    1.403560
