34
Conformer  3, Energy = 63.5222 kcal/mol
C     -1.587286   -0.450606   -0.013151
C      2.898991    0.297481    0.412011
C      1.357720    0.895704   -1.339262
H      0.355135    1.115816   -1.689424
C     -0.647971   -0.145391    1.074219
C     -1.373178   -0.960370   -1.285040
H     -0.374208   -1.195598   -1.635710
C      2.447536    1.108927   -2.189932
C      0.657090    0.183589    1.060367
C     -3.996287   -0.521328   -0.359960
H     -5.006293   -0.368274    0.006566
C      1.585061    0.441309   -0.048818
C     -2.896422   -0.286745    0.454584
C     -2.471672   -1.209934   -2.114398
C     -3.775669   -0.979163   -1.658306
H     -4.619819   -1.178810   -2.313527
C      3.756221    0.897741   -1.737795
H      4.593512    1.068682   -2.409722
C      3.990334    0.496369   -0.423231
H      5.004103    0.359035   -0.060891
C      2.938249   -0.084286    1.857018
H      3.684399    0.484770    2.419397
H      3.137269   -1.156781    1.957420
C      1.515899    0.263776    2.313033
H      1.486208    1.289218    2.704239
H      1.192449   -0.415411    3.108508
C     -1.493777   -0.171185    2.337984
H     -1.162293    0.541687    3.099975
H     -1.459792   -1.178764    2.772823
C     -2.920848    0.157122    1.882071
H     -3.119090    1.232993    1.938077
H     -3.661007   -0.386949    2.476195
H      2.276952    1.454951   -3.206377
H     -2.311513   -1.599577   -3.116657
