34
Conformer  2, Energy = 63.5222 kcal/mol
C      1.646295    0.028527   -0.040215
C     -2.856573   -0.555343    0.460182
C     -1.583871    0.459825   -1.314643
H     -0.694054    0.960331   -1.680648
C      0.676774    0.050891    1.063131
C      1.568402   -0.524515   -1.309655
H      0.674962   -1.040166   -1.644480
C     -2.702474    0.345826   -2.146828
C     -0.667654   -0.012718    1.071453
C      3.966279    0.658551   -0.426607
H      4.894369    1.098798   -0.076305
C     -1.648524   -0.037834   -0.021755
C      2.859144    0.566101    0.406410
C      2.678328   -0.446841   -2.157494
C      3.866668    0.153250   -1.722267
H      4.721590    0.205360   -2.391710
C     -3.886117   -0.234644   -1.673830
H     -4.747890   -0.315455   -2.331536
C     -3.972230   -0.683463   -0.356585
H     -4.896549   -1.107965    0.021977
C     -2.759775   -0.928592    1.904705
H     -3.629554   -0.598974    2.480611
H     -2.637601   -2.012473    2.005743
C     -1.492178   -0.181966    2.338210
H     -1.754689    0.808973    2.731380
H     -0.972702   -0.736268    3.126621
C      1.514301    0.274529    2.312806
H      1.781081   -0.698555    2.745691
H      1.002873    0.862493    3.081856
C      2.777185    1.001443    1.834378
H      2.655819    2.088706    1.889735
H      3.652937    0.696823    2.414979
H     -2.656221    0.723972   -3.165091
H      2.621647   -0.868626   -3.157933
