34
Conformer  1, Energy = 61.2237 kcal/mol
C     -1.941792    0.276123    0.034779
C      2.879928    0.694142    0.373274
C      2.374078   -1.556688   -0.315788
H      1.683037   -2.322469   -0.646766
C     -0.594427   -0.321492    0.050793
C     -2.379465    1.534146   -0.358052
H     -1.692050    2.284753   -0.728939
C      3.740475   -1.853789   -0.259136
C      0.592940    0.315281    0.030896
C     -4.235428   -0.397973    0.503058
H     -4.947875   -1.147721    0.832461
C      1.940202   -0.282769    0.026817
C     -2.877671   -0.684695    0.432815
C     -3.745269    1.833727   -0.300171
C     -4.667495    0.874609    0.134403
H     -5.725339    1.121477    0.175548
C      4.666926   -0.876996    0.124037
H      5.725192   -1.122097    0.164882
C      4.238405    0.410424    0.441807
H      4.954055    1.173544    0.731129
C      2.235764    2.006468    0.677133
H      2.742874    2.842245    0.185689
H      2.216772    2.173601    1.759637
C      0.819589    1.813705    0.123372
H      0.101302    2.320982    0.774661
H      0.753707    2.252173   -0.880530
C     -0.819772   -1.814469    0.210283
H     -0.094681   -2.293275    0.875438
H     -0.764157   -2.295932   -0.774356
C     -2.230113   -1.982808    0.786438
H     -2.742079   -2.838930    0.336826
H     -2.199917   -2.103009    1.874901
H      4.086255   -2.850403   -0.522396
H     -4.093973    2.818113   -0.602659
