37
Conformer 31, Energy = 17.5761 kcal/mol
S      1.365180    0.760368   -0.512403
C      2.652909   -0.173201    0.138501
C      2.177942   -1.030912    1.116389
C      0.772825   -0.913709    1.327631
C      0.199975    0.028544    0.501291
C     -1.242019    0.439115    0.421866
C     -2.031235   -0.471985   -0.522914
C     -3.482586   -0.026574   -0.724669
C     -4.331242   -0.126343    0.544712
C     -5.794021    0.217857    0.260639
C     -6.642772    0.124488    1.518656
H      2.808729   -1.714308    1.671068
H      0.213090   -1.494591    2.050859
H     -1.324508    1.482246    0.092211
H     -1.669282    0.397214    1.430779
H     -1.541862   -0.490097   -1.505378
H     -2.012221   -1.504380   -0.151037
H     -3.927940   -0.658221   -1.503415
H     -3.502090    1.002352   -1.104041
H     -4.265810   -1.142362    0.952290
H     -3.945418    0.556641    1.309704
H     -5.865112    1.233056   -0.146854
H     -6.197606   -0.464882   -0.496118
H     -6.285820    0.819599    2.285298
H     -7.684235    0.373781    1.292576
H     -6.618219   -0.887979    1.934151
C      4.024405   -0.057107   -0.315928
C      5.029848   -0.995363   -0.152514
S      4.628606    1.326692   -1.137263
C      6.200453    0.672113   -1.273336
C      6.277662   -0.578996   -0.703338
C      7.274280    1.453752   -1.947862
H      4.883232   -1.951179    0.334860
H      7.183517   -1.172863   -0.680460
H      7.005792    1.665805   -2.988038
H      7.447522    2.403115   -1.430451
H      8.218033    0.898314   -1.952580
