37
Conformer 23, Energy = 17.4176 kcal/mol
S      1.148925   -0.482251   -0.508032
C      2.403573    0.646640   -0.845412
C      1.860738    1.855663   -1.248303
C      0.434959    1.848705   -1.276502
C     -0.086977    0.633236   -0.892081
C     -1.530893    0.233459   -0.792537
C     -2.098957    0.529499    0.598703
C     -3.606268    0.275679    0.708595
C     -3.981989   -1.203561    0.587350
C     -5.487368   -1.456756    0.706159
C     -6.049444   -1.154509    2.086702
H      2.453278    2.721956   -1.516043
H     -0.173222    2.698013   -1.563893
H     -1.638287   -0.830035   -1.034715
H     -2.104712    0.783964   -1.548818
H     -1.913298    1.582490    0.848244
H     -1.570868   -0.063505    1.356086
H     -4.134222    0.857437   -0.056535
H     -3.935844    0.658250    1.681141
H     -3.658036   -1.586014   -0.386930
H     -3.450031   -1.785266    1.349804
H     -5.679468   -2.512072    0.477933
H     -6.025935   -0.867419   -0.045016
H     -7.101632   -1.452909    2.136617
H     -5.505087   -1.703085    2.861779
H     -5.998518   -0.086488    2.316859
C      3.804371    0.295859   -0.701661
C      4.347440   -0.913118   -0.298410
S      5.059525    1.424396   -1.039977
C      6.293676    0.309842   -0.652441
C      5.773564   -0.905964   -0.269953
C      7.722775    0.717822   -0.753714
H      3.755003   -1.779477   -0.030603
H      6.381235   -1.755372    0.018233
H      8.385871   -0.107001   -0.472330
H      7.971313    1.011994   -1.778756
H      7.934807    1.559899   -0.086656
