37
Conformer 63, Energy = 20.4154 kcal/mol
S      1.274553   -0.587400    0.914953
C      2.326654    0.601703    0.257397
C      1.761289    1.860432    0.373169
C      0.475388    1.840580    0.988633
C      0.084082    0.565183    1.333552
C     -1.192300    0.133226    1.993496
C     -2.288954   -0.150911    0.962295
C     -3.595255   -0.559021    1.642076
C     -4.690014   -1.024888    0.675814
C     -5.188252    0.048613   -0.296005
C     -4.519128   -0.020303   -1.661371
H      2.240793    2.766437    0.024121
H     -0.131240    2.720752    1.164920
H     -1.019389   -0.755956    2.612675
H     -1.526110    0.924954    2.676416
H     -2.452283    0.747944    0.356659
H     -1.962978   -0.946442    0.280935
H     -3.394169   -1.379168    2.342857
H     -3.972045    0.278201    2.242635
H     -5.542522   -1.341878    1.290575
H     -4.356546   -1.916898    0.132261
H     -6.264402   -0.098522   -0.450868
H     -5.067977    1.049915    0.132419
H     -3.440830    0.142696   -1.599804
H     -4.689920   -0.994975   -2.130023
H     -4.936235    0.746468   -2.322162
C      3.622196    0.286253   -0.310750
C      4.678589    1.162944   -0.493243
S      4.041624   -1.279565   -0.882343
C      5.607369   -0.786868   -1.355059
C      5.818473    0.547796   -1.089948
C      6.541825   -1.771472   -1.968573
H      4.647376    2.206190   -0.204642
H      6.745200    1.063873   -1.310440
H      7.499729   -1.300971   -2.214038
H      6.742290   -2.598625   -1.279625
H      6.123117   -2.180301   -2.894077
