37
Conformer 39, Energy = 17.8286 kcal/mol
S      1.044789   -0.039380   -1.454564
C      2.278715   -0.748048   -0.491364
C      1.802094   -1.884333    0.140128
C      0.439490   -2.165784   -0.170486
C     -0.103873   -1.230816   -1.024931
C     -1.496208   -1.182071   -1.584064
C     -2.407322   -0.178906   -0.867032
C     -2.750001   -0.595353    0.567793
C     -3.641978    0.415047    1.296545
C     -5.049351    0.522244    0.708265
C     -5.928150    1.445177    1.539033
H      2.403812   -2.502531    0.794612
H     -0.113227   -3.012156    0.219347
H     -1.944823   -2.182583   -1.539301
H     -1.448502   -0.919479   -2.648847
H     -1.949147    0.817488   -0.862100
H     -3.331622   -0.099360   -1.450503
H     -1.826925   -0.701423    1.149128
H     -3.236226   -1.578374    0.562752
H     -3.161295    1.400941    1.291599
H     -3.717286    0.106774    2.346915
H     -5.511977   -0.470398    0.664174
H     -5.007024    0.909100   -0.315246
H     -6.030972    1.072754    2.563272
H     -5.507139    2.454824    1.580545
H     -6.928683    1.511820    1.100333
C      3.611672   -0.190682   -0.374921
C      4.525135   -0.441100    0.635443
S      4.283928    0.888251   -1.531867
C      5.762768    1.017258   -0.686846
C      5.758313    0.253015    0.458597
C      6.850747    1.882451   -1.222374
H      4.322323   -1.089628    1.478590
H      6.596751    0.191618    1.141991
H      7.163987    1.543286   -2.215281
H      6.518799    2.923284   -1.296499
H      7.728410    1.857072   -0.567951
