37
Conformer  5, Energy = 16.4547 kcal/mol
S      1.101457   -0.366893   -0.371787
C      2.491066    0.643910   -0.469907
C      2.109317    1.960109   -0.671447
C      0.695097    2.129332   -0.742404
C      0.020441    0.937850   -0.591525
C     -1.462495    0.703326   -0.605866
C     -2.062591    0.827677    0.797721
C     -3.591191    0.734934    0.815064
C     -4.121079   -0.640323    0.403384
C     -5.641611   -0.713824    0.549891
C     -6.175655   -2.076764    0.138920
H      2.808703    2.781757   -0.766345
H      0.202029    3.081913   -0.894975
H     -1.677894   -0.284031   -1.030404
H     -1.931865    1.437575   -1.272852
H     -1.775509    1.794810    1.230845
H     -1.641233    0.058395    1.457144
H     -3.934910    0.960887    1.832202
H     -4.014179    1.506805    0.160649
H     -3.851723   -0.851127   -0.637526
H     -3.654793   -1.415211    1.023734
H     -6.112893    0.058781   -0.068741
H     -5.926086   -0.515529    1.589816
H     -5.747022   -2.869627    0.760187
H     -5.936754   -2.292609   -0.907346
H     -7.263847   -2.107304    0.252095
C      3.834246    0.108143   -0.348392
C      4.216211   -1.208104   -0.146507
S      5.224362    1.118701   -0.447453
C      6.303576   -0.185522   -0.224203
C      5.630782   -1.377227   -0.075253
C      7.772932    0.059089   -0.210589
H      3.516914   -2.029840   -0.051571
H      6.123286   -2.329986    0.078040
H      8.103881    0.491072   -1.160789
H      8.323557   -0.875126   -0.058064
H      8.045472    0.743978    0.599144
