37
Conformer 33, Energy = 17.5790 kcal/mol
S      0.797695    0.486852    0.713206
C      2.144195   -0.452793    0.199790
C      1.922714   -1.792064    0.473438
C      0.661284   -2.035900    1.091834
C     -0.064140   -0.878225    1.272971
C     -1.424829   -0.722435    1.888646
C     -2.544166   -1.315361    1.026115
C     -2.790578   -0.605294   -0.310701
C     -3.170256    0.876435   -0.217389
C     -4.401417    1.192846    0.634696
C     -5.673942    0.528588    0.132922
H      2.630870   -2.578451    0.242860
H      0.305981   -3.016799    1.383975
H     -1.418952   -1.247957    2.852833
H     -1.638712    0.326008    2.124903
H     -3.471455   -1.315880    1.611146
H     -2.323951   -2.370134    0.816477
H     -3.581385   -1.145133   -0.845791
H     -1.897566   -0.695313   -0.940946
H     -2.321182    1.448990    0.172595
H     -3.340330    1.250407   -1.235106
H     -4.227237    0.910442    1.678606
H     -4.552086    2.279217    0.630630
H     -5.863294    0.782869   -0.914766
H     -6.531579    0.866078    0.723521
H     -5.619823   -0.560345    0.220790
C      3.306902    0.155319   -0.419071
C      3.480129    1.474803   -0.803396
S      4.721858   -0.756452   -0.778193
C      5.538774    0.593425   -1.430908
C      4.758540    1.726432   -1.383816
C      6.923536    0.440955   -1.958367
H      2.724694    2.241283   -0.680478
H      5.082917    2.694513   -1.746493
H      7.602201    0.090369   -1.174049
H      7.307755    1.396594   -2.330178
H      6.946836   -0.273890   -2.787421
