37
Conformer 65, Energy = 20.5747 kcal/mol
S      1.085448    1.004110   -0.839490
C      2.293500    0.482372    0.265517
C      1.805699    0.514451    1.560958
C      0.455917    0.966644    1.638301
C     -0.066684    1.260666    0.397393
C     -1.440890    1.764379    0.064421
C     -2.387381    0.667748   -0.436717
C     -2.740768   -0.363321    0.642676
C     -3.780163   -1.387130    0.170814
C     -5.219074   -1.074451    0.592019
C     -5.785195    0.202384   -0.004521
H      2.390909    0.234992    2.428145
H     -0.102622    1.066351    2.561286
H     -1.876965    2.250005    0.946640
H     -1.364639    2.545214   -0.703291
H     -3.299941    1.153142   -0.797315
H     -1.948035    0.153542   -1.300543
H     -3.081566    0.136849    1.556680
H     -1.828721   -0.912513    0.906415
H     -3.521861   -2.357199    0.615097
H     -3.726392   -1.524039   -0.915748
H     -5.855877   -1.913007    0.284930
H     -5.280448   -1.020244    1.685431
H     -5.283046    1.086614    0.398439
H     -6.848955    0.290577    0.239210
H     -5.686829    0.206792   -1.094447
C      3.617722    0.062353   -0.148004
C      4.500284   -0.718334    0.579709
S      4.318347    0.508478   -1.652875
C      5.768357   -0.335189   -1.331360
C      5.733122   -0.948763   -0.099121
C      6.866240   -0.334952   -2.338188
H      4.275581   -1.120955    1.559516
H      6.549712   -1.537425    0.301418
H      7.722682   -0.917624   -1.982937
H      6.528852   -0.777299   -3.281329
H      7.213683    0.684785   -2.534240
