37
Conformer 61, Energy = 20.3861 kcal/mol
S      1.232671    0.991000   -0.668764
C      2.377896   -0.043605    0.087298
C      1.757535   -0.828959    1.044350
C      0.358967   -0.574967    1.154269
C     -0.063345    0.396787    0.273266
C     -1.450897    0.938026    0.086656
C     -2.247294    0.101277   -0.920715
C     -3.688666    0.592117   -1.095567
C     -4.730050   -0.182831   -0.280479
C     -4.555984   -0.067734    1.232295
C     -5.707593   -0.728244    1.975376
H      2.280807   -1.555097    1.653856
H     -0.302020   -1.082904    1.846324
H     -1.953485    0.952694    1.059474
H     -1.409963    1.981886   -0.249555
H     -2.233847   -0.960460   -0.645026
H     -1.743703    0.168213   -1.894407
H     -3.958328    0.472791   -2.152991
H     -3.764198    1.664489   -0.879882
H     -4.706171   -1.240277   -0.571959
H     -5.723077    0.193336   -0.557292
H     -4.498792    0.987044    1.523972
H     -3.622813   -0.549778    1.542060
H     -6.661108   -0.252500    1.724759
H     -5.777235   -1.791651    1.724985
H     -5.559534   -0.642488    3.056437
C      3.782002   -0.068095   -0.271675
C      4.679678   -1.092596   -0.021646
S      4.570297    1.232489   -1.072682
C      6.078004    0.429795   -1.086560
C      5.996232   -0.808918   -0.490707
C      7.265121    1.090410   -1.697618
H      4.409482   -2.018340    0.470907
H      6.837510   -1.484676   -0.393878
H      7.089727    1.301648   -2.757633
H      7.492583    2.031451   -1.186035
H      8.149589    0.448664   -1.626327
