37
Conformer 25, Energy = 17.4547 kcal/mol
S      0.699657   -0.266250   -0.661364
C      2.079603    0.758721   -0.748120
C      1.684786    2.076006   -0.914409
C      0.268561    2.234626   -0.967987
C     -0.394374    1.034048   -0.839519
C     -1.875016    0.786425   -0.845002
C     -2.461056    0.867581    0.567378
C     -3.986860    0.737999    0.600018
C     -4.554207   -0.573359    0.046580
C     -4.022246   -1.852010    0.697827
C     -4.306727   -1.936392    2.189254
H      2.376257    2.905742   -0.996024
H     -0.234010    3.186269   -1.092864
H     -2.358829    1.533537   -1.486892
H     -2.085530   -0.191272   -1.293824
H     -2.194488    1.834158    1.015179
H     -2.005916    0.105170    1.210692
H     -4.424574    1.568624    0.031876
H     -4.325925    0.871420    1.634295
H     -5.645783   -0.547986    0.157446
H     -4.365007   -0.625279   -1.032147
H     -4.493966   -2.710787    0.204928
H     -2.945239   -1.950737    0.523978
H     -3.766418   -1.164686    2.745276
H     -5.376537   -1.824793    2.392004
H     -3.988209   -2.909044    2.577803
C      3.428366    0.231907   -0.652018
C      3.823335   -1.085287   -0.484206
S      4.808899    1.256411   -0.741264
C      5.901174   -0.043247   -0.558588
C      5.239910   -1.243807   -0.430594
C      7.368489    0.213637   -0.553604
H      3.131930   -1.914976   -0.401412
H      5.741883   -2.195553   -0.304060
H      7.928416   -0.719055   -0.428006
H      7.643277    0.882073    0.269015
H      7.686376    0.670165   -1.496763
