37
Conformer 55, Energy = 19.2818 kcal/mol
S      1.364137   -0.650195    0.950797
C      2.346378    0.264775   -0.126495
C      1.572605    1.191124   -0.806155
C      0.194276    1.144335   -0.443537
C     -0.061073    0.180180    0.506664
C     -1.376907   -0.172482    1.136936
C     -2.133628   -1.215205    0.306690
C     -3.507956   -1.559300    0.891388
C     -4.681843   -0.819073    0.240658
C     -4.648679    0.696431    0.425536
C     -5.915869    1.348452   -0.107145
H      1.968043    1.883305   -1.539478
H     -0.569229    1.787848   -0.864047
H     -1.221407   -0.551824    2.154913
H     -1.969928    0.742125    1.241865
H     -2.230551   -0.889705   -0.736444
H     -1.533153   -2.134462    0.283026
H     -3.680989   -2.631900    0.734265
H     -3.520060   -1.403376    1.976629
H     -5.610352   -1.213269    0.672756
H     -4.712378   -1.056302   -0.830096
H     -3.791072    1.122263   -0.105789
H     -4.537963    0.942259    1.487711
H     -6.043666    1.142784   -1.174735
H     -6.799959    0.979615    0.422643
H     -5.868416    2.433713    0.026732
C      3.774107    0.031760   -0.241514
C      4.548152   -0.894530    0.438187
S      4.756823    0.946928   -1.318642
C      6.180263    0.114069   -0.876252
C      5.926819   -0.848027    0.075133
C      7.479421    0.472912   -1.510637
H      4.152886   -1.586496    1.171827
H      6.689480   -1.492327    0.495888
H      7.436333    0.325740   -2.594843
H      7.734693    1.518499   -1.309136
H      8.290663   -0.150644   -1.120416
