37
Conformer 28, Energy = 17.5480 kcal/mol
S      1.047157   -1.307934   -0.625027
C      2.040752    0.076219   -0.865611
C      1.257225    1.178840   -1.162869
C     -0.137882    0.884949   -1.187685
C     -0.397971   -0.437084   -0.899833
C     -1.728636   -1.129098   -0.832874
C     -2.231300   -1.343189    0.599036
C     -2.532249   -0.064858    1.391417
C     -3.581563    0.867622    0.777121
C     -4.949839    0.237958    0.506040
C     -5.631636   -0.294101    1.756847
H      1.657146    2.166173   -1.359015
H     -0.909194    1.614498   -1.403135
H     -2.467311   -0.564842   -1.414025
H     -1.650559   -2.106733   -1.326470
H     -3.134265   -1.963983    0.560619
H     -1.493050   -1.927279    1.163294
H     -2.853893   -0.352869    2.399672
H     -1.604549    0.502926    1.532304
H     -3.197597    1.283741   -0.161154
H     -3.714657    1.723543    1.451042
H     -4.861942   -0.565322   -0.233409
H     -5.596305    1.001424    0.056360
H     -5.716442    0.485877    2.520058
H     -5.083719   -1.138961    2.184162
H     -6.641007   -0.642208    1.515013
C      3.486073    0.006313   -0.755917
C      4.270321   -1.097523   -0.463245
S      4.480015    1.391654   -0.993330
C      5.921506    0.521753   -0.708875
C      5.665766   -0.803097   -0.436168
C      7.236215    1.219023   -0.775059
H      3.870803   -2.086259   -0.273334
H      6.438264   -1.533096   -0.226030
H      7.400010    1.646154   -1.769919
H      7.286436    2.024928   -0.035455
H      8.057878    0.524841   -0.569662
