37
Conformer 48, Energy = 18.3825 kcal/mol
S      1.389892    0.842510    1.120643
C      2.087442   -0.410320    0.173927
C      1.244711   -1.508150    0.133959
C      0.043368   -1.317143    0.877281
C     -0.014823   -0.070457    1.462029
C     -1.105821    0.503306    2.318418
C     -2.030684    1.464759    1.563734
C     -2.818839    0.855380    0.396565
C     -3.799016   -0.238485    0.828129
C     -4.578805   -0.846319   -0.340971
C     -5.536700    0.128623   -1.007956
H      1.477081   -2.422254   -0.398014
H     -0.739679   -2.059769    0.972492
H     -1.688292   -0.309878    2.766737
H     -0.656370    1.041139    3.163586
H     -1.442840    2.306545    1.176167
H     -2.741739    1.893754    2.281103
H     -3.372769    1.670424   -0.083485
H     -2.130617    0.462640   -0.360426
H     -4.500591    0.163891    1.568754
H     -3.252652   -1.051669    1.318059
H     -3.881930   -1.243268   -1.088312
H     -5.158066   -1.698037    0.035443
H     -5.000584    0.937240   -1.512936
H     -6.221581    0.569515   -0.276831
H     -6.135905   -0.391412   -1.762369
C      3.372802   -0.284504   -0.484066
C      3.832320   -1.042121   -1.548402
S      4.566833    0.855197   -0.004610
C      5.668310    0.342992   -1.205475
C      5.147885   -0.681434   -1.964318
C      6.999971    1.000642   -1.320465
H      3.250450   -1.822245   -2.023219
H      5.680579   -1.153126   -2.781336
H      7.573121    0.882442   -0.394968
H      6.888782    2.069769   -1.529324
H      7.584758    0.559825   -2.134657
