37
Conformer 15, Energy = 16.9695 kcal/mol
S      1.252018    1.127375    0.411301
C      2.319453    0.189517   -0.560040
C      1.595676   -0.675958   -1.363702
C      0.185954   -0.566054   -1.178987
C     -0.142530    0.381506   -0.234570
C     -1.509655    0.785515    0.235989
C     -2.001739   -0.121406    1.367298
C     -3.349634    0.311971    1.952000
C     -4.522412    0.351282    0.967529
C     -4.813004   -0.999121    0.312293
C     -6.054423   -0.934245   -0.564313
H      2.048287   -1.368107   -2.063218
H     -0.547200   -1.157457   -1.714323
H     -1.506325    1.830897    0.568755
H     -2.197537    0.732467   -0.616309
H     -1.265432   -0.120293    2.181833
H     -2.059699   -1.159997    1.019781
H     -3.602534   -0.366317    2.776544
H     -3.238402    1.308410    2.397635
H     -4.340607    1.108095    0.195818
H     -5.413324    0.682240    1.516280
H     -3.965148   -1.312841   -0.306010
H     -4.956980   -1.764557    1.083449
H     -5.931474   -0.196731   -1.363895
H     -6.936499   -0.660856    0.023492
H     -6.243212   -1.908292   -1.026419
C      3.759777    0.349245   -0.483264
C      4.483809    1.214776    0.320345
S      4.827631   -0.588344   -1.454902
C      6.220957    0.155648   -0.806319
C      5.893953    1.104514    0.135869
C      7.572170   -0.255047   -1.280220
H      4.031294    1.907221    1.019652
H      6.626406    1.695993    0.672034
H      7.677557   -0.077336   -2.355548
H      7.747156   -1.317675   -1.082183
H      8.355672    0.313964   -0.768790
