37
Conformer 51, Energy = 18.5413 kcal/mol
S      1.349538    0.555818   -0.709371
C      2.539159   -0.666413   -0.501634
C      1.935768   -1.894451   -0.289868
C      0.511645   -1.826439   -0.303756
C      0.054966   -0.544441   -0.521256
C     -1.366315   -0.067366   -0.604948
C     -1.932353    0.247793    0.782879
C     -3.339775    0.853069    0.744414
C     -4.405637   -0.122784    0.238760
C     -5.812924    0.479791    0.212118
C     -6.372659    0.780350    1.593795
H      2.487266   -2.814091   -0.139172
H     -0.142368   -2.678319   -0.160974
H     -1.964346   -0.848891   -1.088063
H     -1.434536    0.819291   -1.247473
H     -1.270647    0.960840    1.291763
H     -1.939343   -0.659985    1.400074
H     -3.335392    1.754476    0.120363
H     -3.590211    1.173204    1.762228
H     -4.404600   -1.027822    0.857939
H     -4.160110   -0.434933   -0.782554
H     -6.484184   -0.229735   -0.286471
H     -5.815825    1.396029   -0.390095
H     -6.345892   -0.109508    2.230745
H     -5.813513    1.578879    2.089671
H     -7.414177    1.107799    1.513219
C      3.962840   -0.398822   -0.533325
C      4.960826   -1.178096    0.027569
S      4.643951    0.967870   -1.321158
C      6.241245    0.520784   -0.912330
C      6.268220   -0.650327   -0.188141
C      7.384410    1.373492   -1.342678
H      4.769120   -2.089226    0.580835
H      7.179753   -1.110799    0.173761
H      8.334844    0.961768   -0.986243
H      7.434221    1.433446   -2.435313
H      7.287038    2.387747   -0.940427
