37
Conformer  0, Energy = 16.2870 kcal/mol
S      0.546417   -0.178552    1.072492
C      1.905565    0.710653    0.504513
C      1.714944    2.064456    0.725210
C      0.466508    2.360489    1.347354
C     -0.280059    1.226845    1.584681
C     -1.636500    1.124678    2.219798
C     -2.755578    1.692577    1.339680
C     -3.001966    0.948608    0.021685
C     -3.465139   -0.496852    0.215221
C     -3.787737   -1.158147   -1.125286
C     -4.246546   -2.595756   -0.940762
H      2.436496    2.825811    0.455180
H      0.135173    3.359873    1.602668
H     -1.613445    1.695687    3.157647
H     -1.864940    0.092702    2.509124
H     -2.538239    2.742693    1.105952
H     -3.685953    1.694686    1.921477
H     -2.099851    0.971889   -0.600516
H     -3.773180    1.496251   -0.534845
H     -4.354202   -0.514880    0.857083
H     -2.688229   -1.079371    0.721735
H     -4.573918   -0.593501   -1.639771
H     -2.901577   -1.143475   -1.770344
H     -3.466834   -3.198306   -0.463712
H     -5.146942   -2.643211   -0.320217
H     -4.478424   -3.046959   -1.910668
C      3.047939    0.052889   -0.102157
C      3.223098   -1.297680   -0.356742
S      4.431889    0.936832   -0.618885
C      5.238177   -0.465433   -1.166504
C      4.477461   -1.595381   -0.967142
C      6.596155   -0.354891   -1.768370
H      2.486078   -2.055263   -0.119932
H      4.799096   -2.592572   -1.242972
H      6.963370   -1.335591   -2.089115
H      7.309898    0.048657   -1.042893
H      6.580995    0.299546   -2.645781
