37
Conformer 38, Energy = 17.6587 kcal/mol
S      1.318476   -0.507359    0.759511
C      2.419405   -0.867879   -0.508778
C      1.887635   -1.823794   -1.355776
C      0.578013   -2.236585   -0.974077
C      0.146051   -1.605294    0.172171
C     -1.161054   -1.775650    0.887937
C     -2.219995   -0.796962    0.369014
C     -3.557649   -1.004441    1.083200
C     -4.673829   -0.099985    0.552753
C     -4.460986    1.378863    0.878141
C     -5.634234    2.224371    0.407135
H      2.405927   -2.204571   -2.228207
H     -0.014650   -2.961724   -1.517039
H     -1.511071   -2.806290    0.746231
H     -1.023916   -1.641604    1.968601
H     -1.867950    0.229960    0.516917
H     -2.355443   -0.937203   -0.711647
H     -3.871774   -2.047634    0.951680
H     -3.433987   -0.844507    2.161396
H     -4.772101   -0.232959   -0.531776
H     -5.622075   -0.428973    0.997231
H     -4.337782    1.504758    1.960208
H     -3.549499    1.749249    0.398785
H     -5.761493    2.145811   -0.678244
H     -5.466144    3.277784    0.656290
H     -6.566648    1.905774    0.885861
C      3.721885   -0.246624   -0.620287
C      4.848587   -0.793389   -1.209934
S      4.054740    1.335609   -0.038692
C      5.681777    1.278715   -0.556038
C      5.975178    0.079690   -1.169915
C      6.574601    2.447605   -0.320725
H      4.874258   -1.786972   -1.642644
H      6.951244   -0.166323   -1.571640
H      7.615591    2.198641   -0.551947
H      6.276151    3.290116   -0.956221
H      6.532762    2.769775    0.725412
