37
Conformer  6, Energy = 16.4699 kcal/mol
S      1.135813   -0.333128    0.252622
C      2.522131    0.675579    0.103694
C      2.159201    2.006108    0.231029
C      0.761271    2.187849    0.446596
C      0.080024    0.991026    0.478191
C     -1.390678    0.766254    0.680140
C     -2.141868    0.743381   -0.654217
C     -3.662797    0.658359   -0.495300
C     -4.136608   -0.656057    0.128487
C     -5.663559   -0.736635    0.155273
C     -6.142565   -2.035988    0.783783
H      2.860265    2.828994    0.170690
H      0.283597    3.152462    0.568862
H     -1.550528   -0.169229    1.228320
H     -1.789566    1.568997    1.312908
H     -1.790486   -0.093892   -1.270533
H     -1.910033    1.657096   -1.216368
H     -4.018005    1.504379    0.106175
H     -4.115447    0.765936   -1.489256
H     -3.756076   -0.744492    1.152136
H     -3.734588   -1.501071   -0.443539
H     -6.071383    0.109751    0.720704
H     -6.058203   -0.664623   -0.865163
H     -7.236351   -2.073147    0.790298
H     -5.793315   -2.123994    1.817737
H     -5.776678   -2.901617    0.222173
C      3.845620    0.125041   -0.120736
C      4.195272   -1.194668   -0.356681
S      5.251095    1.118896   -0.121167
C      6.295033   -0.196707   -0.430146
C      5.598762   -1.380333   -0.532073
C      7.762632    0.030571   -0.549253
H      3.480284   -2.007478   -0.405021
H      6.067186   -2.338158   -0.723169
H      7.981321    0.799569   -1.298034
H      8.182712    0.347902    0.411413
H      8.276515   -0.886933   -0.855689
