37
Conformer 24, Energy = 17.4343 kcal/mol
S      1.491451   -0.211807    0.691890
C      2.524269    0.673826   -0.362318
C      1.796025    1.631503   -1.048793
C      0.410796    1.632074   -0.710060
C      0.104542    0.671955    0.229133
C     -1.233555    0.361776    0.835599
C     -2.026228   -0.619976   -0.032532
C     -3.350105   -1.062150    0.600183
C     -4.373905    0.070041    0.718025
C     -5.699369   -0.375782    1.341558
C     -6.483199   -1.350229    0.475964
H      2.228612    2.313527   -1.770571
H     -0.321543    2.305353   -1.139241
H     -1.109114   -0.047519    1.845832
H     -1.787984    1.301015    0.946774
H     -1.420051   -1.517625   -0.211408
H     -2.219416   -0.178208   -1.018432
H     -3.761994   -1.864728   -0.021934
H     -3.158485   -1.494476    1.589632
H     -4.560898    0.505757   -0.270847
H     -3.965691    0.870144    1.345476
H     -5.517526   -0.824778    2.324906
H     -6.318896    0.513461    1.509232
H     -6.647987   -0.941605   -0.525972
H     -7.461514   -1.548011    0.925871
H     -5.965268   -2.308649    0.378947
C      3.944516    0.390386   -0.454556
C      4.673022   -0.567311    0.231923
S      4.977858    1.276311   -1.508507
C      6.362693    0.390124   -1.047585
C      6.058542   -0.568122   -0.107237
C      7.684645    0.705983   -1.657260
H      4.240602   -1.249164    0.953982
H      6.790248   -1.242002    0.322066
H      8.466167    0.051287   -1.257504
H      7.973672    1.740460   -1.444330
H      7.655069    0.567159   -2.743019
