37
Conformer 26, Energy = 17.5058 kcal/mol
S      1.077106   -0.770142   -1.105468
C      2.245936    0.392391   -0.610639
C      1.614973    1.510871   -0.091347
C      0.192727    1.407867   -0.101805
C     -0.238097    0.209829   -0.627907
C     -1.649485   -0.269386   -0.806550
C     -2.173714   -0.947757    0.462253
C     -3.578966   -1.535095    0.300194
C     -4.680902   -0.532503   -0.057934
C     -4.843339    0.644910    0.906101
C     -5.186747    0.222959    2.326123
H      2.142321    2.378557    0.285842
H     -0.477187    2.177671    0.262169
H     -1.713927   -0.961889   -1.655009
H     -2.277390    0.592810   -1.060881
H     -2.155246   -0.242627    1.301930
H     -1.497044   -1.765329    0.743753
H     -3.551342   -2.307845   -0.478547
H     -3.848897   -2.054388    1.227522
H     -4.500899   -0.138045   -1.064992
H     -5.632683   -1.075880   -0.115620
H     -3.936864    1.259826    0.915605
H     -5.648300    1.288264    0.530464
H     -4.364841   -0.329722    2.790498
H     -6.081519   -0.407238    2.343147
H     -5.382694    1.105779    2.943143
C      3.669751    0.151635   -0.754605
C      4.300966   -0.966770   -1.274117
S      4.839012    1.314207   -0.259909
C      6.152920    0.332560   -0.734840
C      5.723639   -0.863925   -1.263178
C      7.548967    0.818511   -0.550639
H      3.773710   -1.834316   -1.651798
H      6.392776   -1.634470   -1.626942
H      7.716668    1.742011   -1.114591
H      8.271599    0.075204   -0.903495
H      7.757010    1.011464    0.506956
