37
Conformer 10, Energy = 16.7041 kcal/mol
S      1.299585    1.010555   -0.529281
C      2.629588    0.126280    0.111784
C      2.174519   -0.862134    0.972568
C      0.753290   -0.887627    1.098523
C      0.147115    0.083665    0.329860
C     -1.319478    0.380808    0.199955
C     -2.033300   -0.686084   -0.636500
C     -3.505698   -0.360159   -0.898662
C     -4.373251   -0.413516    0.361651
C     -5.840101   -0.140230    0.029624
C     -6.722358   -0.258695    1.261850
H      2.825954   -1.549641    1.498751
H      0.206893   -1.588915    1.722360
H     -1.752277    0.428074    1.209267
H     -1.475392    1.368906   -0.253870
H     -1.526752   -0.784492   -1.606768
H     -1.955875   -1.668189   -0.147369
H     -3.892268   -1.086953   -1.626993
H     -3.585579    0.631459   -1.366054
H     -4.026364    0.328247    1.090632
H     -4.280907   -1.398999    0.830876
H     -5.938040    0.863001   -0.393790
H     -6.194889   -0.849159   -0.732923
H     -6.399235    0.434056    2.044884
H     -7.761345   -0.030993    1.008900
H     -6.694095   -1.276952    1.666536
C      3.999738    0.440029   -0.250274
C      4.450983    1.401989   -1.136523
S      5.333516   -0.406149    0.434926
C      6.481341    0.494487   -0.454556
C      5.873231    1.432217   -1.258161
C      7.936282    0.215107   -0.293281
H      3.796069    2.063713   -1.689287
H      6.415511    2.110757   -1.905137
H      8.525352    0.748329   -1.051030
H      8.145766   -0.855729   -0.401827
H      8.282471    0.542940    0.694224
