37
Conformer 16, Energy = 17.0267 kcal/mol
S      0.939827    1.057470    0.127366
C      2.395640    0.190648    0.427948
C      2.240818   -0.636485    1.527970
C      0.941593   -0.556187    2.110350
C      0.125751    0.330311    1.441918
C     -1.299919    0.686975    1.744202
C     -2.276229   -0.275909    1.062041
C     -3.727223    0.092146    1.378909
C     -4.746077   -0.885564    0.785021
C     -4.746100   -0.997598   -0.741432
C     -5.028024    0.318533   -1.448025
H      3.023873   -1.278545    1.912714
H      0.624881   -1.126300    2.975768
H     -1.451155    0.658412    2.830909
H     -1.510606    1.717331    1.430567
H     -2.110743   -0.253700   -0.021502
H     -2.077996   -1.303226    1.393464
H     -3.862669    0.104413    2.467698
H     -3.937891    1.110800    1.032168
H     -4.570097   -1.883255    1.205753
H     -5.747615   -0.584297    1.116955
H     -5.517115   -1.721086   -1.032903
H     -3.792831   -1.405663   -1.094970
H     -4.218742    1.037956   -1.291984
H     -5.120059    0.155211   -2.526567
H     -5.962317    0.763759   -1.092287
C      3.571149    0.363668   -0.403636
C      3.794397    1.319317   -1.381144
S      4.934892   -0.677673   -0.269855
C      5.799324    0.145502   -1.491295
C      5.071071    1.195071   -2.005072
C      7.165016   -0.311277   -1.872770
H      3.077737    2.087204   -1.646649
H      5.430904    1.847816   -2.791380
H      7.121993   -1.294061   -2.354833
H      7.628633    0.388780   -2.576413
H      7.815910   -0.380497   -0.994121
