37
Conformer  4, Energy = 16.4426 kcal/mol
S      1.329473   -0.623731   -0.836211
C      2.573962    0.533111   -0.561749
C      2.036927    1.809235   -0.519149
C      0.623688    1.829554   -0.708892
C      0.105088    0.566488   -0.891374
C     -1.325477    0.176118   -1.119371
C     -2.064503   -0.047034    0.202571
C     -3.527370   -0.428612   -0.036479
C     -4.265727   -0.647742    1.285895
C     -5.705086   -1.133771    1.103277
C     -6.611045   -0.111813    0.434057
H      2.624970    2.704578   -0.358466
H      0.021460    2.730186   -0.708590
H     -1.380555   -0.729149   -1.736958
H     -1.824211    0.969813   -1.690264
H     -1.568398   -0.838625    0.778312
H     -2.018313    0.863661    0.813363
H     -3.573844   -1.343413   -0.639485
H     -4.015315    0.366165   -0.611707
H     -4.262509    0.280614    1.870030
H     -3.724811   -1.395704    1.878866
H     -6.118756   -1.371434    2.090645
H     -5.714306   -2.064302    0.523900
H     -7.642981   -0.477178    0.420444
H     -6.312153    0.072219   -0.601943
H     -6.596095    0.840199    0.973939
C      3.962104    0.138592   -0.408920
C      4.499363   -1.137616   -0.451416
S      5.207114    1.295472   -0.134976
C      6.429438    0.104643   -0.076702
C      5.912902   -1.157955   -0.261187
C      7.846259    0.503841    0.151961
H      3.911428   -2.033004   -0.612324
H      6.514495   -2.059007   -0.260998
H      8.194265    1.173574   -0.641366
H      8.502814   -0.372542    0.161800
H      7.955706    1.014568    1.114352
