37
Conformer 14, Energy = 16.9685 kcal/mol
S      1.086946    1.479232    0.414889
C      2.070467    0.442993   -0.544211
C      1.278840   -0.316659   -1.389373
C     -0.114183   -0.049055   -1.243799
C     -0.364608    0.905458   -0.282306
C     -1.690209    1.456904    0.156535
C     -2.189229    0.861452    1.477466
C     -2.489640   -0.642595    1.454016
C     -3.530854   -1.100349    0.428039
C     -4.902995   -0.454964    0.623303
C     -5.927765   -1.028441   -0.343568
H      1.671554   -1.040833   -2.092639
H     -0.890814   -0.540125   -1.817619
H     -2.434093    1.302957   -0.633877
H     -1.606082    2.545454    0.272742
H     -1.449330    1.047916    2.266413
H     -3.091731    1.403658    1.783875
H     -1.560032   -1.197350    1.279243
H     -2.830761   -0.937547    2.454617
H     -3.632884   -2.189662    0.513947
H     -3.171682   -0.906824   -0.588634
H     -4.840958    0.626959    0.465014
H     -5.248495   -0.616494    1.650838
H     -6.901109   -0.551819   -0.190676
H     -5.625198   -0.858246   -1.381774
H     -6.050068   -2.105779   -0.192896
C      3.516365    0.434313   -0.421024
C      4.308724    1.197522    0.420899
S      4.500219   -0.604718   -1.378052
C      5.948139   -0.036909   -0.673312
C      5.702079    0.928218    0.276942
C      7.257807   -0.593209   -1.114135
H      3.916420    1.926311    1.119644
H      6.479952    1.422578    0.846442
H      7.417503   -0.411783   -2.182123
H      8.084585   -0.126618   -0.568296
H      7.303121   -1.671945   -0.931665
