37
Conformer 19, Energy = 17.2168 kcal/mol
S      1.148750    0.709273   -0.699321
C      2.588265    0.181486    0.082761
C      2.283724   -0.382752    1.310615
C      0.887025   -0.379357    1.598403
C      0.148025    0.186443    0.582811
C     -1.340058    0.372190    0.511635
C     -2.032777   -0.873930   -0.047805
C     -3.542024   -0.693400   -0.241061
C     -4.299843   -0.490631    1.073615
C     -5.820918   -0.527730    0.904238
C     -6.364793    0.614787    0.060448
H      3.026091   -0.787085    1.987856
H      0.450848   -0.775941    2.507409
H     -1.586782    1.246143   -0.103960
H     -1.710523    0.588308    1.520804
H     -1.846696   -1.733181    0.609132
H     -1.593728   -1.130321   -1.020704
H     -3.930890   -1.586471   -0.745585
H     -3.718354    0.153765   -0.913651
H     -4.014301    0.463440    1.531033
H     -4.014263   -1.280487    1.779141
H     -6.282185   -0.477656    1.897820
H     -6.124325   -1.483999    0.462478
H     -6.052012    1.583715    0.462183
H     -7.459221    0.588346    0.053472
H     -6.025587    0.543849   -0.977116
C      3.893410    0.344893   -0.530297
C      4.198185    0.909145   -1.758258
S      5.333408   -0.182395    0.251909
C      6.332235    0.337600   -1.031639
C      5.595230    0.905380   -2.046256
C      7.807352    0.146694   -0.950337
H      3.455921    1.313775   -2.435458
H      6.030656    1.301754   -2.955707
H      8.301636    0.531600   -1.848523
H      8.221090    0.678290   -0.087060
H      8.057428   -0.915542   -0.860141
