37
Conformer 12, Energy = 16.7247 kcal/mol
S      1.245067   -0.721669    1.157333
C      2.326198    0.450313    0.509964
C      1.771738    1.715650    0.608860
C      0.476642    1.715144    1.205521
C      0.059382    0.446717    1.545133
C     -1.231233    0.036880    2.193145
C     -2.254623   -0.537056    1.206288
C     -2.807964    0.511491    0.234718
C     -3.814391   -0.061652   -0.768388
C     -5.116111   -0.537629   -0.122449
C     -6.124026   -0.983629   -1.171002
H      2.266616    2.617768    0.270452
H     -0.118295    2.605455    1.370571
H     -1.024157   -0.714541    2.966113
H     -1.668272    0.896611    2.716734
H     -3.079394   -0.955214    1.794501
H     -1.815679   -1.367992    0.640933
H     -3.274720    1.328982    0.797406
H     -1.983735    0.951447   -0.338305
H     -4.045932    0.720362   -1.502434
H     -3.351630   -0.886963   -1.323168
H     -4.922313   -1.376598    0.554013
H     -5.553416    0.270444    0.475120
H     -7.046186   -1.323843   -0.689503
H     -6.377887   -0.160765   -1.846860
H     -5.727674   -1.810443   -1.769035
C      3.616712    0.076970   -0.038754
C      4.172955   -1.188163   -0.134613
S      4.697593    1.248906   -0.688151
C      5.876565    0.078880   -1.083883
C      5.467699   -1.187950   -0.733216
C      7.153071    0.497592   -1.727497
H      3.680134   -2.089771    0.208187
H      6.063872   -2.077956   -0.895319
H      6.961745    0.987158   -2.688091
H      7.703288    1.192057   -1.084071
H      7.798360   -0.366998   -1.915368
