37
Conformer 21, Energy = 17.2775 kcal/mol
S      1.002645   -1.038921   -1.477718
C      2.070542   -0.496133   -0.242260
C      1.481338   -0.656650    1.000838
C      0.171065   -1.214869    0.932255
C     -0.222478   -1.464111   -0.364435
C     -1.519979   -2.046300   -0.844433
C     -2.500735   -0.994258   -1.374197
C     -2.970553    0.053583   -0.356297
C     -3.760745   -0.542483    0.811538
C     -4.222397    0.506811    1.826519
C     -5.250497    1.480855    1.272268
H      1.961842   -0.388535    1.933825
H     -0.450469   -1.416909    1.796334
H     -1.984319   -2.625968   -0.038266
H     -1.316832   -2.769835   -1.644938
H     -3.380659   -1.513599   -1.774537
H     -2.045788   -0.466590   -2.222115
H     -3.602348    0.770025   -0.894005
H     -2.114324    0.622221    0.023773
H     -3.138135   -1.267355    1.347007
H     -4.629525   -1.091628    0.429047
H     -4.665468   -0.013366    2.684282
H     -3.358285    1.064191    2.206468
H     -6.109536    0.948890    0.851490
H     -4.821739    2.118348    0.493772
H     -5.615467    2.135210    2.070541
C      3.384551    0.037426   -0.549779
C      3.976457    0.192591   -1.792647
S      4.450783    0.585655    0.685552
C      5.670387    1.016998   -0.428919
C      5.286109    0.753684   -1.724293
C      6.951911    1.598690    0.059297
H      3.498827   -0.082232   -2.725182
H      5.909735    0.951569   -2.587857
H      7.624609    1.819450   -0.776138
H      7.466351    0.900047    0.727330
H      6.773126    2.533498    0.600768
