37
Conformer  2, Energy = 16.4414 kcal/mol
S      1.320607    0.019337    0.854106
C      2.577775    0.744414   -0.071180
C      2.082824    1.824815   -0.782848
C      0.690842    2.047863   -0.567670
C      0.145819    1.131294    0.304353
C     -1.274333    1.033798    0.778217
C     -2.123697    0.177508   -0.164562
C     -3.574939    0.096083    0.315007
C     -4.421992   -0.762750   -0.626677
C     -5.905056   -0.792001   -0.251196
C     -6.180860   -1.469688    1.082106
H      2.686251    2.441447   -1.437746
H      0.121551    2.842801   -1.034357
H     -1.310254    0.621061    1.794247
H     -1.698971    2.043954    0.840441
H     -2.094643    0.599387   -1.177330
H     -1.703187   -0.833878   -0.231843
H     -3.594576   -0.324721    1.326539
H     -3.999139    1.105677    0.373324
H     -4.028229   -1.786234   -0.649172
H     -4.335154   -0.368605   -1.646851
H     -6.450602   -1.331279   -1.034816
H     -6.305473    0.228259   -0.231623
H     -5.758095   -0.901996    1.916068
H     -5.762575   -2.480934    1.103204
H     -7.260318   -1.546241    1.247872
C      3.934966    0.231132   -0.048512
C      4.430121   -0.849433    0.663077
S      5.192708    0.956512   -0.973378
C      6.365162   -0.157521   -0.425814
C      5.822361   -1.072782    0.447492
C      7.771882   -0.052051   -0.904398
H      3.826811   -1.466008    1.318158
H      6.390965   -1.868308    0.914009
H      7.821206   -0.159659   -1.992977
H      8.395301   -0.836263   -0.462168
H      8.204942    0.915008   -0.628215
