37
Conformer  7, Energy = 16.5145 kcal/mol
S      1.117244    0.351929    1.534357
C      2.094810    0.817519    0.196895
C      1.453885    1.797015   -0.543206
C      0.177171    2.151959   -0.016693
C     -0.139013    1.431608    1.114618
C     -1.381568    1.517261    1.952895
C     -2.620839    0.956738    1.245330
C     -2.565583   -0.562850    1.053301
C     -3.875520   -1.154190    0.522925
C     -4.215868   -0.697689   -0.896358
C     -5.460202   -1.398241   -1.420539
H      1.873848    2.250938   -1.432530
H     -0.476177    2.897743   -0.453702
H     -1.562071    2.574719    2.186018
H     -1.245685    1.012419    2.917221
H     -2.750427    1.454537    0.277470
H     -3.501026    1.205815    1.851067
H     -1.750002   -0.829196    0.371168
H     -2.342488   -1.037575    2.016723
H     -3.786071   -2.247691    0.535628
H     -4.697332   -0.897653    1.202476
H     -3.375435   -0.908271   -1.567654
H     -4.388313    0.383606   -0.917824
H     -5.315185   -2.482857   -1.455471
H     -6.326135   -1.186967   -0.784992
H     -5.690204   -1.054080   -2.433845
C      3.394619    0.218605   -0.043118
C      4.021239   -0.785210    0.677351
S      4.394419    0.719972   -1.351849
C      5.632360   -0.386098   -0.951830
C      5.303408   -1.132167    0.157433
C      6.872603   -0.443832   -1.774931
H      3.587183   -1.262248    1.547845
H      5.947542   -1.892661    0.582540
H      7.422351    0.500905   -1.712385
H      6.635736   -0.642167   -2.825294
H      7.536723   -1.241646   -1.426152
