37
Conformer  1, Energy = 16.3112 kcal/mol
S      1.240753    0.510151    1.624533
C      2.036747    0.589570    0.100915
C      1.148491    0.999166   -0.879607
C     -0.165447    1.239571   -0.380682
C     -0.261121    1.001225    0.972994
C     -1.465933    1.142019    1.857117
C     -2.147978   -0.193511    2.173985
C     -2.724932   -0.946963    0.969309
C     -3.833583   -0.181254    0.244229
C     -4.440599   -1.021087   -0.880473
C     -5.540137   -0.264901   -1.609022
H      1.418268    1.126942   -1.920821
H     -0.997992    1.566920   -0.991782
H     -2.181853    1.833089    1.397038
H     -1.167223    1.615544    2.801612
H     -1.436977   -0.855823    2.683893
H     -2.957704   -0.005369    2.890360
H     -1.925229   -1.201922    0.264444
H     -3.130318   -1.900380    1.331368
H     -4.617247    0.095990    0.959538
H     -3.436980    0.747844   -0.179168
H     -4.854140   -1.949996   -0.470881
H     -3.660601   -1.301262   -1.598034
H     -6.351386    0.003426   -0.924775
H     -5.152008    0.654210   -2.059517
H     -5.960281   -0.883642   -2.408105
C      3.442343    0.259019   -0.043688
C      4.332412   -0.145246    0.937892
S      4.237561    0.333465   -1.568661
C      5.735044   -0.165097   -0.917109
C      5.646195   -0.388376    0.438343
C      6.922616   -0.305715   -1.805324
H      4.064388   -0.266284    1.980386
H      6.480229   -0.711203    1.049881
H      7.168029    0.649861   -2.280367
H      6.736680   -1.048342   -2.588237
H      7.799912   -0.631637   -1.236699
