37
Conformer 17, Energy = 17.2015 kcal/mol
S      1.074200   -0.146927   -0.754412
C      2.574995   -0.270476    0.079084
C      2.362938   -0.689324    1.382284
C      0.985996   -0.902982    1.685707
C      0.169145   -0.641188    0.607855
C     -1.326447   -0.747199    0.530181
C     -2.002490    0.568030    0.928707
C     -3.529985    0.468367    0.996509
C     -4.178834    0.199992   -0.363949
C     -5.705088    0.316418   -0.337067
C     -6.377773   -0.734008    0.533115
H      3.157638   -0.841045    2.102482
H      0.618159   -1.231054    2.650522
H     -1.625913   -1.041949   -0.482294
H     -1.660992   -1.550113    1.199303
H     -1.717732    1.364834    0.229991
H     -1.637431    0.880117    1.915963
H     -3.806877   -0.316898    1.709126
H     -3.916254    1.413210    1.398268
H     -3.793035    0.920881   -1.095170
H     -3.902789   -0.797527   -0.724123
H     -5.997466    1.315761    0.005694
H     -6.079372    0.211521   -1.362438
H     -6.127675   -0.599685    1.589544
H     -7.465866   -0.659159    0.438409
H     -6.080258   -1.743342    0.231824
C      3.835629    0.039350   -0.569571
C      4.047873    0.458549   -1.872792
S      5.336956   -0.085025    0.263502
C      6.240058    0.412476   -1.097543
C      5.425155    0.672533   -2.176107
C      7.723487    0.515217   -1.008612
H      3.253252    0.610309   -2.593087
H      5.792358    1.001291   -3.140933
H      8.150484    0.845507   -1.961392
H      8.166269   -0.455491   -0.762262
H      8.017684    1.239028   -0.241433
