37
Conformer 35, Energy = 17.5928 kcal/mol
S      1.333657    0.400481    0.753087
C      2.504578   -0.653819    0.069449
C      2.102301   -1.971848    0.200699
C      0.848358   -2.108087    0.865310
C      0.314722   -0.888775    1.223154
C     -0.977824   -0.614578    1.934149
C     -2.143730   -0.481439    0.949740
C     -3.461827   -0.229638    1.685647
C     -4.679203   -0.187391    0.757953
C     -4.664484    0.993831   -0.212987
C     -5.949425    1.059678   -1.024654
H      2.684967   -2.813214   -0.153918
H      0.365183   -3.055587    1.069995
H     -1.178433   -1.434749    2.635786
H     -0.894534    0.296698    2.540089
H     -1.939045    0.341029    0.254425
H     -2.228410   -1.394383    0.346619
H     -3.397930    0.707191    2.251885
H     -3.620465   -1.031089    2.417960
H     -5.580585   -0.127837    1.380767
H     -4.746083   -1.127328    0.196533
H     -4.541486    1.932003    0.340516
H     -3.819215    0.908362   -0.903952
H     -5.916626    1.906438   -1.717067
H     -6.090508    0.146125   -1.610954
H     -6.819260    1.188448   -0.372643
C      3.718519   -0.182031   -0.564121
C      4.459953   -0.848974   -1.524269
S      4.454396    1.321526   -0.177350
C      5.733491    1.081797   -1.284446
C      5.614592   -0.122931   -1.940808
C      6.792935    2.118370   -1.430418
H      4.186144   -1.816808   -1.925170
H      6.319692   -0.472358   -2.685493
H      7.485449    1.858247   -2.238354
H      7.373480    2.207862   -0.505960
H      6.356652    3.094781   -1.666312
