37
Conformer 52, Energy = 18.6099 kcal/mol
S      1.353705    0.925472    0.234084
C      2.333745   -0.463368   -0.019292
C      1.607505   -1.615793    0.229829
C      0.264159   -1.353990    0.629202
C     -0.011581   -0.004545    0.671574
C     -1.302157    0.666867    1.042007
C     -2.234454    0.790130   -0.166495
C     -3.528247    1.550456    0.140040
C     -4.418717    0.936206    1.225151
C     -4.848158   -0.513233    0.986912
C     -5.650619   -0.705732   -0.290363
H      2.018553   -2.613573    0.140040
H     -0.461816   -2.120738    0.871859
H     -1.783475    0.077940    1.831834
H     -1.108790    1.659112    1.468212
H     -1.714469    1.321605   -0.974391
H     -2.468023   -0.204289   -0.565473
H     -4.103498    1.648286   -0.788389
H     -3.273290    2.573801    0.443530
H     -5.316846    1.559113    1.324257
H     -3.906478    0.994942    2.192790
H     -5.464327   -0.833216    1.835980
H     -3.974699   -1.174152    0.974048
H     -6.522199   -0.043909   -0.310210
H     -5.044438   -0.507066   -1.179017
H     -6.008070   -1.738323   -0.357186
C      3.715764   -0.390166   -0.450154
C      4.449561   -1.403539   -1.043920
S      4.686918    1.015093   -0.258715
C      6.055670    0.276083   -0.964459
C      5.791003   -1.021618   -1.341366
C      7.325349    1.042970   -1.101752
H      4.045380   -2.382742   -1.268450
H      6.520898   -1.670912   -1.809815
H      7.177498    1.931331   -1.724626
H      8.102928    0.431093   -1.570986
H      7.695714    1.360402   -0.121404
