37
Conformer 67, Energy = 21.2259 kcal/mol
S      1.127141    0.529479   -0.828987
C      2.317045   -0.160642    0.198613
C      1.730229   -0.691410    1.333850
C      0.316215   -0.512084    1.362742
C     -0.148852    0.137784    0.239133
C     -1.564652    0.505224   -0.100790
C     -2.321492   -0.687012   -0.695349
C     -3.758905   -0.350600   -1.108989
C     -4.825302   -0.707915   -0.067286
C     -4.788365    0.078207    1.241932
C     -5.023516    1.569815    1.059242
H      2.289540   -1.176964    2.123840
H     -0.325708   -0.844789    2.169647
H     -2.055958    0.861317    0.810492
H     -1.582395    1.344866   -0.807554
H     -1.782387   -1.020448   -1.592832
H     -2.310785   -1.538423   -0.002817
H     -3.845835    0.698228   -1.414682
H     -3.988590   -0.942955   -2.005603
H     -5.811994   -0.571291   -0.528291
H     -4.746506   -1.776978    0.166989
H     -3.842859   -0.091888    1.766396
H     -5.574848   -0.314723    1.898197
H     -4.218617    2.040188    0.488344
H     -5.968507    1.756622    0.539304
H     -5.071941    2.063994    2.035010
C      3.724908   -0.182579   -0.133180
C      4.648920   -1.135558    0.258744
S      4.482190    1.041516   -1.070891
C      6.015461    0.294236   -0.967633
C      5.963908   -0.864029   -0.222567
C      7.195883    0.916036   -1.631272
H      4.396263   -2.001947    0.858123
H      6.826219   -1.491146   -0.029779
H      7.980449    0.172027   -1.802225
H      6.931640    1.345402   -2.603490
H      7.611999    1.708442   -1.001496
