37
Conformer 59, Energy = 19.9779 kcal/mol
S      1.181955    0.922042    0.416087
C      2.277100   -0.248308   -0.211086
C      1.606574   -1.428110   -0.487994
C      0.213926   -1.365165   -0.187914
C     -0.155539   -0.135376    0.311008
C     -1.521205    0.317578    0.740156
C     -2.318697    0.884233   -0.439023
C     -3.715499    1.378595   -0.044854
C     -4.844880    0.375130   -0.304355
C     -4.818440   -0.907059    0.526423
C     -4.970081   -0.663543    2.019921
H      2.085294   -2.311588   -0.892449
H     -0.479339   -2.184824   -0.334725
H     -2.043687   -0.535016    1.184753
H     -1.439340    1.073443    1.531219
H     -1.762318    1.737749   -0.849540
H     -2.386351    0.149014   -1.250273
H     -3.732111    1.726196    0.993915
H     -3.936085    2.261715   -0.659057
H     -4.836032    0.100301   -1.366693
H     -5.801735    0.884256   -0.131489
H     -5.648148   -1.544840    0.197745
H     -3.903293   -1.474308    0.328860
H     -5.025804   -1.619010    2.551651
H     -5.886298   -0.103995    2.234481
H     -4.122987   -0.105292    2.428476
C      3.686680    0.045495   -0.391081
C      4.341884    1.250472   -0.196108
S      4.803018   -1.158227   -0.909240
C      6.126560   -0.080033   -0.870125
C      5.739879    1.179296   -0.470357
C      7.486303   -0.557668   -1.247036
H      3.848061    2.158280    0.128784
H      6.421873    2.016284   -0.378342
H      8.228125    0.238876   -1.125635
H      7.507306   -0.877409   -2.293999
H      7.793334   -1.399186   -0.617217
