37
Conformer 18, Energy = 17.2046 kcal/mol
S      1.079456    0.591465   -0.478832
C      2.577526    0.119536    0.225071
C      2.363945   -0.420456    1.482666
C      0.987750   -0.445683    1.855620
C      0.173216    0.075621    0.874600
C     -1.320860    0.222092    0.890751
C     -2.011611   -1.019348    0.318467
C     -3.537951   -0.976123    0.444556
C     -4.181969    0.136244   -0.387182
C     -5.709313    0.042900   -0.437974
C     -6.374203    0.246686    0.914752
H      3.156897   -0.789128    2.121813
H      0.618779   -0.830279    2.798910
H     -1.612563    1.117341    0.329427
H     -1.650877    0.382302    1.925026
H     -1.734641   -1.152449   -0.735047
H     -1.651382   -1.912407    0.846040
H     -3.807239   -0.862465    1.500846
H     -3.935169   -1.945041    0.117691
H     -3.801013    0.084628   -1.414635
H     -3.896861    1.117367    0.009182
H     -6.010153   -0.927800   -0.848644
H     -6.081520    0.808169   -1.129301
H     -7.462765    0.265478    0.799319
H     -6.065042    1.194509    1.366788
H     -6.128919   -0.563654    1.607615
C      3.837846    0.299944   -0.471152
C      4.046528    0.782030   -1.753006
S      5.343304   -0.092104    0.265709
C      6.243581    0.375608   -1.107699
C      5.424542    0.824854   -2.118851
C      7.729228    0.266732   -1.095728
H      3.248652    1.094083   -2.415873
H      5.789539    1.168578   -3.079577
H      8.043644   -0.765207   -0.907359
H      8.158480    0.910916   -0.321032
H      8.151138    0.575063   -2.058072
