37
Conformer 44, Energy = 18.2320 kcal/mol
S      1.160828    0.257280    0.843822
C      2.352032   -0.776525    0.158408
C      1.884664   -2.079466    0.122285
C      0.573147   -2.222921    0.663593
C      0.056791   -1.018300    1.094581
C     -1.283009   -0.750957    1.715517
C     -2.375207   -0.607505    0.651931
C     -3.724179   -0.266253    1.289072
C     -4.888998   -0.298681    0.295163
C     -4.769737    0.650204   -0.900918
C     -4.672275    2.116096   -0.510374
H      2.455064   -2.911196   -0.271354
H      0.037948   -3.165241    0.730952
H     -1.535604   -1.581923    2.384927
H     -1.244342    0.147245    2.339532
H     -2.461530   -1.544188    0.084232
H     -2.090819    0.174090   -0.065624
H     -3.667610    0.717099    1.772354
H     -3.941400   -0.988696    2.087540
H     -5.000726   -1.322371   -0.086390
H     -5.814105   -0.071923    0.840894
H     -3.906865    0.377931   -1.518162
H     -5.656401    0.518114   -1.534921
H     -3.745006    2.326239    0.033782
H     -5.519590    2.410170    0.117655
H     -4.680866    2.743475   -1.406294
C      3.647884   -0.307406   -0.299786
C      4.690373   -1.087908   -0.771738
S      4.097854    1.352966   -0.324471
C      5.648967    1.023886   -0.957240
C      5.837747   -0.325908   -1.147746
C      6.596499    2.141215   -1.225245
H      4.646325   -2.168167   -0.845198
H      6.753045   -0.753511   -1.538064
H      6.163727    2.858458   -1.929108
H      6.846409    2.666779   -0.298029
H      7.528966    1.767798   -1.660692
