37
Conformer 45, Energy = 18.3314 kcal/mol
S      0.491780   -1.080254   -0.736595
C      1.930190   -1.026715    0.201127
C      1.752474   -1.707792    1.393294
C      0.443180   -2.254069    1.533885
C     -0.356865   -1.976582    0.446196
C     -1.786296   -2.374604    0.218339
C     -2.768351   -1.636322    1.135002
C     -2.849459   -0.117044    0.936112
C     -3.380250    0.288898   -0.441293
C     -3.437444    1.805529   -0.643309
C     -4.443622    2.503626    0.258414
H      2.524197   -1.808062    2.146290
H      0.106247   -2.817711    2.395615
H     -1.872714   -3.450870    0.418661
H     -2.073385   -2.247377   -0.831455
H     -3.768019   -2.064454    0.988389
H     -2.502590   -1.830627    2.182117
H     -3.515731    0.278529    1.711545
H     -1.868802    0.340349    1.109150
H     -4.377673   -0.140481   -0.594518
H     -2.734707   -0.123876   -1.223822
H     -3.710008    2.005402   -1.686573
H     -2.443346    2.240477   -0.487255
H     -5.440059    2.063797    0.150474
H     -4.149957    2.443922    1.310330
H     -4.511224    3.563980   -0.005578
C      3.141533   -0.367724   -0.244331
C      4.426234   -0.604090    0.215359
S      3.153418    0.867956   -1.438980
C      4.846806    1.070501   -1.342282
C      5.405377    0.218602   -0.415706
C      5.524418    2.077750   -2.205616
H      4.665526   -1.343594    0.969366
H      6.465902    0.182024   -0.197246
H      6.604432    2.084508   -2.024712
H      5.364167    1.852340   -3.265110
H      5.144620    3.084057   -2.000397
