37
Conformer 66, Energy = 20.9131 kcal/mol
S      1.007842    0.972007   -1.213457
C      1.975089    0.332324    0.053799
C      1.227383    0.207784    1.212086
C     -0.123168    0.636468    1.053838
C     -0.388123    1.066857   -0.228365
C     -1.677535    1.595744   -0.788354
C     -2.408614    0.598010   -1.689936
C     -2.907157   -0.691276   -1.023502
C     -4.149600   -0.527161   -0.140152
C     -3.834055   -0.280445    1.334731
C     -5.101854   -0.257635    2.176047
H      1.628119   -0.165476    2.146258
H     -0.860090    0.624931    1.847228
H     -1.462779    2.499583   -1.374288
H     -2.332407    1.928452    0.022471
H     -1.744570    0.312767   -2.516319
H     -3.260646    1.109102   -2.155806
H     -2.101424   -1.196498   -0.480116
H     -3.186691   -1.370548   -1.840361
H     -4.730245   -1.456639   -0.207762
H     -4.795243    0.268972   -0.529151
H     -3.170257   -1.067025    1.711566
H     -3.317340    0.672670    1.465647
H     -5.778118    0.536681    1.844253
H     -4.855525   -0.077332    3.227155
H     -5.633789   -1.212198    2.111417
C      3.369569   -0.024795   -0.115979
C      4.106384   -0.878025    0.688432
S      4.353324    0.600894   -1.379027
C      5.731562   -0.262247   -0.856427
C      5.460567   -1.016581    0.263246
C      7.014568   -0.134376   -1.602479
H      3.695821   -1.394869    1.546877
H      6.194739   -1.641223    0.757805
H      6.895998   -0.465792   -2.639360
H      7.796949   -0.747371   -1.142781
H      7.361315    0.904267   -1.604349
