37
Conformer 47, Energy = 18.3644 kcal/mol
S      1.138784    0.758769    0.781005
C      2.282122   -0.494431    0.508516
C      1.821234   -1.688528    1.036312
C      0.538156   -1.570674    1.646408
C      0.040387   -0.287574    1.569393
C     -1.265862    0.236063    2.092257
C     -2.480665   -0.306559    1.330429
C     -2.584537    0.235367   -0.099144
C     -3.783067   -0.321483   -0.875168
C     -5.161625   -0.015332   -0.284957
C     -5.452320    1.471623   -0.156756
H      2.373283   -2.618667    0.984535
H      0.006784   -2.391137    2.113615
H     -1.286104    1.332874    2.085256
H     -1.352988   -0.063344    3.144887
H     -2.457334   -1.402997    1.308540
H     -3.376646   -0.019264    1.892507
H     -2.624678    1.330420   -0.080332
H     -1.679897   -0.030537   -0.658479
H     -3.675997   -1.410072   -0.960619
H     -3.742829    0.072050   -1.898702
H     -5.921175   -0.463291   -0.937283
H     -5.274776   -0.496538    0.692493
H     -6.485563    1.625304    0.170818
H     -4.797929    1.945802    0.580582
H     -5.321830    1.981952   -1.116204
C      3.547389   -0.279550   -0.164806
C      4.672899   -1.082118   -0.081847
S      3.835520    1.043825   -1.223100
C      5.437064    0.549254   -1.552187
C      5.758101   -0.606170   -0.875322
C      6.286889    1.351795   -2.475646
H      4.728131   -1.974312    0.529362
H      6.724592   -1.091242   -0.941476
H      6.417532    2.370849   -2.096861
H      5.836242    1.403782   -3.472255
H      7.280714    0.904090   -2.580882
