37
Conformer 13, Energy = 16.9000 kcal/mol
S      0.874251    1.363615    0.912950
C      1.936296    0.044715    0.606799
C      1.437153   -1.112044    1.182053
C      0.198476   -0.911723    1.859261
C     -0.232295    0.394963    1.783036
C     -1.479413    0.997152    2.363136
C     -2.755602    0.518321    1.661529
C     -2.881796    1.039689    0.226181
C     -4.226909    0.702081   -0.425329
C     -4.547252   -0.789560   -0.550235
C     -3.520840   -1.567515   -1.358910
H      1.932455   -2.073756    1.127152
H     -0.349159   -1.693831    2.371539
H     -1.436629    2.093118    2.346428
H     -1.534779    0.710603    3.421371
H     -3.617644    0.868887    2.242541
H     -2.791659   -0.577091    1.669722
H     -2.067235    0.650698   -0.394154
H     -2.772221    2.131486    0.231296
H     -4.248319    1.153120   -1.425387
H     -5.030367    1.183558    0.145941
H     -4.650373   -1.242054    0.442072
H     -5.524543   -0.891178   -1.037670
H     -3.376882   -1.119164   -2.346927
H     -2.553086   -1.603806   -0.849870
H     -3.858407   -2.599234   -1.500749
C      3.161120    0.212094   -0.153193
C      3.659335    1.368497   -0.730778
S      4.227032   -1.105573   -0.454062
C      5.324187   -0.138587   -1.335264
C      4.898596    1.168433   -1.408231
C      6.557100   -0.746868   -1.908759
H      3.163377    2.329958   -0.676934
H      5.445277    1.950347   -1.921625
H      7.174379   -1.191840   -1.121289
H      7.162891    0.007266   -2.422233
H      6.303485   -1.524780   -2.636522
