37
Conformer 41, Energy = 18.0729 kcal/mol
S      1.049650    0.867966   -1.174990
C      2.141954    0.438673    0.079849
C      1.469418    0.328038    1.284967
C      0.073945    0.597123    1.172406
C     -0.296665    0.896179   -0.120896
C     -1.662722    1.238065   -0.641402
C     -2.352123    0.069304   -1.353551
C     -2.668075   -1.147719   -0.474927
C     -3.560261   -0.880615    0.741195
C     -4.936676   -0.324059    0.376304
C     -5.822632   -0.187153    1.605209
H      1.953539    0.073946    2.219658
H     -0.621049    0.568471    2.002891
H     -2.289573    1.604645    0.179870
H     -1.579958    2.077059   -1.344792
H     -1.728585   -0.268944   -2.191074
H     -3.280888    0.437231   -1.805667
H     -3.151550   -1.905919   -1.104169
H     -1.731271   -1.599935   -0.127983
H     -3.058115   -0.200071    1.437464
H     -3.689274   -1.828191    1.279570
H     -5.426356   -0.984989   -0.348041
H     -4.837120    0.660163   -0.093651
H     -6.800768    0.215571    1.324126
H     -5.373813    0.490653    2.338370
H     -5.980701   -1.158006    2.085599
C      3.557379    0.218928   -0.142043
C      4.421673   -0.484973    0.679831
S      4.403983    0.843366   -1.501407
C      5.892489    0.175224   -0.995827
C      5.760679   -0.512504    0.189831
C      7.115983    0.378824   -1.820848
H      4.112526   -0.972758    1.595862
H      6.582200   -1.014680    0.686517
H      7.982380   -0.109517   -1.362499
H      6.984470   -0.044323   -2.822181
H      7.345908    1.444929   -1.918680
