37
Conformer 42, Energy = 18.0729 kcal/mol
S      1.044074   -0.149792   -1.457462
C      2.137141   -0.439738   -0.163948
C      1.462367   -0.959177    0.927709
C      0.064553   -1.117556    0.696510
C     -0.305428   -0.703526   -0.564883
C     -1.673416   -0.714348   -1.183279
C     -2.348883    0.661203   -1.189277
C     -2.654920    1.254479    0.191778
C     -3.553201    0.407918    1.098816
C     -4.934169    0.133044    0.503171
C     -5.824934   -0.608600    1.488246
H      1.946408   -1.228078    1.858288
H     -0.632455   -1.513942    1.424933
H     -2.306278   -1.445356   -0.666634
H     -1.597203   -1.071626   -2.218684
H     -3.280063    0.588375   -1.763720
H     -1.719577    1.376342   -1.734442
H     -3.128883    2.233395    0.044658
H     -1.714547    1.453659    0.719509
H     -3.059966   -0.539185    1.343349
H     -3.674093    0.943758    2.048896
H     -4.843298   -0.469161   -0.407078
H     -5.415058    1.077682    0.224433
H     -5.385105   -1.571833    1.765945
H     -6.806321   -0.798882    1.042584
H     -5.974467   -0.022641    2.400720
C      3.555347   -0.151473   -0.244847
C      4.424425    0.019372    0.819799
S      4.399396    0.005375   -1.733979
C      5.893184    0.302230   -0.960575
C      5.765021    0.281871    0.410296
C      7.116872    0.540492   -1.775969
H      4.117666   -0.031570    1.857066
H      6.590198    0.447873    1.092425
H      7.986893    0.713917   -1.133949
H      7.336210   -0.324986   -2.409887
H      6.992510    1.420484   -2.415630
