37
Conformer 58, Energy = 19.7895 kcal/mol
S      1.132206    1.215776    0.217087
C      2.221005   -0.099627    0.001040
C      1.557556   -1.301875    0.183194
C      0.175612   -1.138156    0.494421
C     -0.193164    0.188270    0.542392
C     -1.548634    0.762909    0.835818
C     -2.398496    0.866135   -0.433823
C     -3.768115    1.503194   -0.195535
C     -4.711552    0.764960    0.760818
C     -5.180895   -0.608208    0.270728
C     -4.340870   -1.764539    0.791905
H      2.034094   -2.270955    0.099280
H     -0.510695   -1.957546    0.671656
H     -1.451572    1.751881    1.300903
H     -2.043066    0.122286    1.574952
H     -1.866583    1.481327   -1.171884
H     -2.516285   -0.117136   -0.902433
H     -4.269062    1.619081   -1.165013
H     -3.617347    2.519699    0.189993
H     -4.276835    0.696015    1.763960
H     -5.603721    1.396737    0.866241
H     -5.223323   -0.638167   -0.823792
H     -6.206807   -0.764812    0.627180
H     -4.301188   -1.758538    1.885887
H     -3.318068   -1.733551    0.411785
H     -4.780542   -2.716861    0.477900
C      3.619298    0.112910   -0.323819
C      4.283093    1.315182   -0.505676
S      4.708530   -1.202515   -0.539913
C      6.031838   -0.174563   -0.868111
C      5.665341    1.151378   -0.817527
C      7.371503   -0.757029   -1.159758
H      3.806811    2.284347   -0.421099
H      6.351008    1.971285   -0.994792
H      8.108139    0.031134   -1.347840
H      7.332249   -1.396890   -2.047483
H      7.728534   -1.353539   -0.313754
