37
Conformer 11, Energy = 16.7247 kcal/mol
S      1.048156    1.511243    0.177198
C      2.329215    0.416069    0.524981
C      1.961465   -0.435837    1.553232
C      0.644597   -0.189434    2.041517
C      0.024484    0.842447    1.371422
C     -1.351413    1.399691    1.594938
C     -2.382227    0.909896    0.571150
C     -2.711681   -0.580289    0.713958
C     -3.724588   -1.080004   -0.321374
C     -5.121028   -0.481851   -0.146924
C     -6.113793   -1.099701   -1.120036
H      2.604293   -1.211458    1.951255
H      0.177529   -0.749126    2.843039
H     -1.307270    2.495865    1.556900
H     -1.690239    1.145775    2.607366
H     -2.034596    1.114373   -0.448701
H     -3.295683    1.497388    0.717935
H     -1.796536   -1.171271    0.593461
H     -3.088562   -0.781849    1.723960
H     -3.353302   -0.868051   -1.331467
H     -3.790899   -2.171685   -0.232953
H     -5.472480   -0.647290    0.877974
H     -5.096626    0.600104   -0.313662
H     -6.199897   -2.179312   -0.960777
H     -7.105036   -0.656449   -0.982445
H     -5.805477   -0.928154   -2.156315
C      3.583541    0.453052   -0.203852
C      3.952863    1.307266   -1.230047
S      4.864508   -0.643559    0.142593
C      5.881809    0.019517   -1.057811
C      5.269475    1.059603   -1.719826
C      7.244818   -0.542463   -1.270910
H      3.311836    2.086024   -1.624890
H      5.737604    1.621404   -2.519229
H      7.189883   -1.599159   -1.552679
H      7.766801   -0.009260   -2.072431
H      7.848454   -0.453514   -0.361663
