37
Conformer 20, Energy = 17.2676 kcal/mol
S      1.135246    0.067382   -1.012558
C      2.579943   -0.313764   -0.159967
C      2.279645   -0.963062    1.025549
C      0.879004   -1.140826    1.226089
C      0.134718   -0.620493    0.189784
C     -1.358609   -0.608212    0.035132
C     -1.985681    0.581799    0.767431
C     -3.493445    0.716404    0.530402
C     -4.299609   -0.472577    1.059722
C     -5.811319   -0.231440    1.042159
C     -6.381925   -0.057986   -0.356994
H      3.028333   -1.305891    1.729287
H      0.443660   -1.625597    2.091726
H     -1.755921   -1.548128    0.436097
H     -1.633132   -0.581844   -1.026473
H     -1.505135    1.511399    0.436035
H     -1.790174    0.502900    1.844385
H     -3.676221    0.846493   -0.542344
H     -3.835791    1.633611    1.024879
H     -3.997579   -0.683647    2.093141
H     -4.074190   -1.370507    0.472162
H     -6.305097   -1.088075    1.516988
H     -6.055523    0.649823    1.646920
H     -6.007844    0.853450   -0.832714
H     -6.127203   -0.910802   -0.994043
H     -7.473145    0.016906   -0.310869
C      3.886238    0.035755   -0.682321
C      4.214794    0.427302   -1.969549
S      5.292485    0.009070    0.308735
C      6.311423    0.512844   -0.966073
C      5.605126    0.700452   -2.133203
C      7.770006    0.694590   -0.724390
H      3.494102    0.514172   -2.773729
H      6.057738    1.018696   -3.064540
H      8.289021    0.963605   -1.650530
H      8.220997   -0.228370   -0.344399
H      7.945063    1.494569    0.002962
