37
Conformer  8, Energy = 16.5184 kcal/mol
S      1.067480    1.222768   -0.278613
C      2.464153    0.541256    0.459048
C      2.191404    0.195163    1.771627
C      0.850083    0.484920    2.159160
C      0.122391    1.048364    1.134054
C     -1.312265    1.487593    1.148869
C     -2.254601    0.340255    0.772459
C     -3.717201    0.788425    0.816318
C     -4.708917   -0.346378    0.545170
C     -4.639535   -0.882670   -0.884937
C     -5.717471   -1.924617   -1.140477
H      2.919573   -0.246863    2.440168
H      0.442358    0.284424    3.143102
H     -1.460467    2.333102    0.465485
H     -1.560945    1.854523    2.152920
H     -2.108395   -0.501397    1.460785
H     -2.003071   -0.022535   -0.230738
H     -3.934089    1.201344    1.808964
H     -3.879275    1.598234    0.094611
H     -4.538120   -1.163038    1.256885
H     -5.720918    0.031862    0.735971
H     -4.761141   -0.059202   -1.597847
H     -3.661780   -1.337677   -1.075013
H     -6.716185   -1.501211   -0.994326
H     -5.651979   -2.291159   -2.169526
H     -5.603949   -2.778944   -0.465929
C      3.710063    0.386942   -0.266034
C      4.069092    0.952005   -1.478467
S      4.989939   -0.593931    0.335059
C      5.996609   -0.260697   -1.003825
C      5.379119    0.579931   -1.902780
C      7.354186   -0.868910   -1.083321
H      3.425750    1.611610   -2.048373
H      5.839514    0.916951   -2.823430
H      7.924660   -0.443760   -1.916083
H      7.921758   -0.686704   -0.164605
H      7.282174   -1.949979   -1.241446
