37
Conformer  9, Energy = 16.5311 kcal/mol
S      0.939433    1.655327    0.156007
C      2.130159    0.471600    0.531731
C      1.722221   -0.288289    1.615053
C      0.446785    0.098525    2.121736
C     -0.101012    1.144884    1.411903
C     -1.416891    1.831402    1.638333
C     -2.619333    0.959194    1.259052
C     -2.741859    0.733358   -0.252022
C     -4.034368    0.015672   -0.653270
C     -4.103930   -1.428913   -0.156410
C     -5.349428   -2.132946   -0.673588
H      2.306957   -1.096253    2.037453
H     -0.042498   -0.373926    2.965040
H     -1.465042    2.785522    1.099340
H     -1.490575    2.081104    2.704970
H     -3.528708    1.457794    1.617309
H     -2.558291   -0.002539    1.781153
H     -1.883916    0.159947   -0.621275
H     -2.718627    1.704558   -0.761673
H     -4.101137    0.019992   -1.748392
H     -4.899728    0.578102   -0.282701
H     -3.216370   -1.979959   -0.487803
H     -4.115267   -1.456574    0.938146
H     -5.363472   -2.152344   -1.767739
H     -6.256925   -1.628643   -0.327121
H     -5.377092   -3.166678   -0.315556
C      3.360717    0.359896   -0.228392
C      3.703715    1.009982   -1.402266
S      4.643252   -0.671800    0.273913
C      5.629789   -0.245725   -1.053147
C      5.003744    0.663189   -1.875904
C      6.982564   -0.851842   -1.198970
H      3.054088    1.709056   -1.914370
H      5.451049    1.065320   -2.777050
H      7.519180   -0.412939   -2.046705
H      7.584964   -0.684696   -0.300004
H      6.905853   -1.930359   -1.371895
