37
Conformer 62, Energy = 20.4119 kcal/mol
S      0.954066   -0.228535   -0.298355
C      2.402197    0.394985    0.385401
C      2.118961    1.123491    1.528457
C      0.727428    1.160568    1.836751
C     -0.027000    0.463628    0.918151
C     -1.516024    0.270095    0.895440
C     -2.213014    1.377636    0.103852
C     -3.742764    1.349515    0.198041
C     -4.396802    0.101209   -0.404133
C     -4.742224   -0.957605    0.645391
C     -5.385055   -2.180127    0.008464
H      2.875966    1.607985    2.132446
H      0.304463    1.675200    2.691164
H     -1.752998   -0.710251    0.466505
H     -1.888458    0.262863    1.927486
H     -1.871926    2.355915    0.467741
H     -1.913761    1.325332   -0.950903
H     -4.058312    1.492327    1.238336
H     -4.111833    2.222181   -0.356395
H     -3.761384   -0.326811   -1.188396
H     -5.330868    0.407250   -0.892899
H     -5.434649   -0.533944    1.382377
H     -3.848104   -1.272213    1.191117
H     -6.308530   -1.911093   -0.514151
H     -4.706450   -2.649530   -0.710910
H     -5.632522   -2.920893    0.775263
C      3.711413    0.177587   -0.197416
C      4.851812    0.929028    0.032293
S      4.054526   -1.108766   -1.284675
C      5.694156   -0.657364   -1.444479
C      5.988931    0.452306   -0.684300
C      6.598306   -1.445246   -2.328109
H      4.877203    1.795256    0.681615
H      6.971851    0.905928   -0.641073
H      7.611315   -1.029344   -2.321579
H      6.238510   -1.433298   -3.362238
H      6.661574   -2.485264   -1.991396
