37
Conformer 54, Energy = 18.8006 kcal/mol
S      0.509393   -1.022924    1.140562
C      1.550796   -0.880697   -0.221826
C      1.073364   -1.651042   -1.269157
C     -0.136174   -2.337503   -0.954323
C     -0.569059   -2.070150    0.326336
C     -1.786738   -2.595813    1.024401
C     -3.109565   -2.097674    0.429787
C     -3.413659   -0.616950    0.698379
C     -2.932410    0.313062   -0.419600
C     -3.323191    1.776075   -0.195004
C     -2.611879    2.415260    0.987909
H      1.563264   -1.727381   -2.232162
H     -0.663627   -2.988517   -1.641137
H     -1.758527   -2.368151    2.097343
H     -1.767409   -3.691315    0.950297
H     -3.907942   -2.685011    0.902500
H     -3.164624   -2.315799   -0.643478
H     -4.502569   -0.505780    0.781180
H     -2.995639   -0.319026    1.665827
H     -1.847876    0.250252   -0.540632
H     -3.373627   -0.015936   -1.368652
H     -3.072371    2.344482   -1.098676
H     -4.407801    1.858851   -0.059611
H     -2.855172    3.481329    1.040534
H     -2.916446    1.959634    1.934412
H     -1.525618    2.320527    0.891506
C      2.741745   -0.052487   -0.187889
C      3.188495    0.763010    0.838950
S      3.828235    0.025731   -1.520661
C      4.866686    1.126306   -0.729576
C      4.405936    1.438761    0.529406
C      6.092022    1.619078   -1.418582
H      2.670117    0.880845    1.782688
H      4.912639    2.119763    1.202639
H      5.831272    2.161829   -2.333213
H      6.752197    0.786016   -1.681985
H      6.655759    2.301344   -0.773607
