37
Conformer 36, Energy = 17.6143 kcal/mol
S      1.229340    0.006785   -1.003006
C      2.621709   -0.690352   -0.279119
C      2.273376   -1.792978    0.480649
C      0.873390   -2.061867    0.459576
C      0.180144   -1.150722   -0.308002
C     -1.296438   -1.090891   -0.567586
C     -2.027571   -0.327808    0.541145
C     -3.537831   -0.298285    0.294027
C     -4.264060    0.472753    1.397658
C     -5.787049    0.437928    1.256295
C     -6.300359    1.196736    0.043862
H      2.990719   -2.391735    1.027859
H      0.400593   -2.881474    0.987620
H     -1.687588   -2.113598   -0.635280
H     -1.496792   -0.618812   -1.538582
H     -1.645243    0.699524    0.600254
H     -1.824654   -0.796743    1.512498
H     -3.921350   -1.324784    0.252120
H     -3.734193    0.162944   -0.679317
H     -3.918625    1.513900    1.414045
H     -4.000177    0.037593    2.370626
H     -6.134386   -0.600398    1.212742
H     -6.230206    0.881841    2.156244
H     -5.965715    2.238760    0.063805
H     -7.395281    1.193112    0.036156
H     -5.959234    0.742097   -0.891984
C      3.952181   -0.147941   -0.449575
C      5.000340   -0.239295    0.449703
S      4.444112    0.692558   -1.863982
C      6.028771    0.936241   -1.272673
C      6.191289    0.388395   -0.019343
C      7.027386    1.663940   -2.104525
H      4.920018   -0.726573    1.413431
H      7.119562    0.430516    0.537991
H      7.953091    1.833949   -1.544737
H      6.642304    2.640346   -2.416243
H      7.278429    1.084337   -2.999468
