46
Conformer 42, Energy = 122.7145 kcal/mol
C     -2.926145    1.143096    0.234314
C     -3.077649    2.285501   -0.558534
C     -2.014686    3.173233   -0.713627
C     -0.801468    2.939367   -0.065053
C     -0.685754    1.812429    0.759708
C     -1.712018    0.860328    0.867898
N      0.243832    3.877270   -0.186480
N      1.216428    3.667781   -0.957864
C      1.392705    2.411882   -1.570793
C      0.747190    2.093722   -2.770436
C      2.278900    1.483870   -1.001894
C      2.473236    0.223724   -1.575753
C      0.935287    0.843873   -3.355769
C      1.785502   -0.086433   -2.753131
N     -1.501045   -0.255921    1.677862
N      3.267500   -0.769291   -0.964067
C      2.626767   -1.488976    0.199940
C      1.232494   -2.037989   -0.130791
S      0.717266   -3.530989    0.820340
C     -2.279445   -1.505244    1.510805
C     -1.766649   -2.605273    2.458684
C      2.639855   -0.587028    1.440447
O      3.888757   -0.124782    1.712121
O      1.703969   -0.241371    2.142267
C     -2.365039   -2.054989    0.080594
O     -1.717575   -1.746125   -0.905138
O     -3.329103   -2.997898   -0.043653
S      0.056853   -2.832357    2.631886
H     -3.780940    0.484087    0.341857
H     -4.025959    2.481280   -1.051163
H     -2.131899    4.059115   -1.330104
H      0.240247    1.671634    1.307977
H      0.080672    2.816778   -3.235885
H      2.798933    1.766520   -0.093113
H      0.410024    0.586310   -4.272525
H      1.915070   -1.063597   -3.212127
H     -0.504680   -0.426042    1.849129
H      4.112968   -0.320299   -0.596071
H      3.289179   -2.333083    0.427597
H      1.217986   -2.380488   -1.169882
H      0.477008   -1.257837   -0.039414
H     -3.314877   -1.279534    1.801847
H     -2.205887   -3.580682    2.223850
H     -2.106145   -2.355246    3.471302
H      3.769484    0.434927    2.510654
H     -3.271150   -3.255251   -0.988843
