46
Conformer 45, Energy = 124.3192 kcal/mol
C     -3.089668    2.392814    1.665630
C     -2.550061    3.550449    1.094761
C     -1.836186    3.474911   -0.103387
C     -1.670232    2.244151   -0.742121
C     -2.267773    1.105628   -0.187449
C     -2.954944    1.156770    1.026301
N     -0.892170    2.079712   -1.902793
N      0.314323    2.294528   -1.641265
C      1.133588    1.484733   -2.450587
C      1.208523    1.624555   -3.835050
C      1.884042    0.477605   -1.820172
C      2.618119   -0.467843   -2.535326
C      2.000252    0.748516   -4.572227
C      2.693325   -0.282276   -3.924738
N     -3.395680   -0.036834    1.634441
N      3.344892   -1.502937   -1.964048
C      3.254745   -2.005530   -0.566451
C      2.047825   -2.924458   -0.274574
S      0.354549   -2.293592   -0.573910
C     -2.356927   -0.688612    2.509635
C     -1.557440   -1.768898    1.750665
C      3.571175   -1.008959    0.549190
O      4.383462    0.006124    0.184086
O      3.247615   -1.116571    1.723870
C     -3.066400   -1.353634    3.703415
O     -2.649724   -2.261275    4.404919
O     -4.263970   -0.782032    3.991034
S     -0.017439   -1.073121    1.037073
H     -3.609468    2.466084    2.617204
H     -2.664426    4.507560    1.596830
H     -1.386820    4.367458   -0.529294
H     -2.156427    0.155165   -0.703510
H      0.643902    2.407131   -4.332566
H      1.827114    0.440367   -0.739882
H      2.070792    0.855616   -5.651151
H      3.299433   -0.953215   -4.529477
H     -4.199421    0.177907    2.236090
H      3.553671   -2.242094   -2.628855
H      4.120980   -2.681491   -0.491294
H      2.092146   -3.309328    0.750700
H      2.135973   -3.799965   -0.929490
H     -1.703778    0.068190    2.965824
H     -1.245634   -2.588085    2.405505
H     -2.173797   -2.194187    0.950718
H      4.494736    0.540781    0.995595
H     -4.586798   -1.291817    4.765101
