46
Conformer 14, Energy = 114.4518 kcal/mol
C      3.882984    1.435967   -1.453591
C      3.186311    2.268354   -2.333460
C      1.940563    2.778901   -1.971318
C      1.383846    2.456452   -0.730027
C      2.113524    1.648011    0.152540
C      3.358087    1.121474   -0.195674
N      0.102542    2.866128   -0.316963
N     -0.746547    2.675891   -1.216036
C     -1.974635    2.346977   -0.619467
C     -2.978787    3.290417   -0.422889
C     -2.188652    1.016290   -0.225913
C     -3.380720    0.600507    0.365443
C     -4.167476    2.908797    0.196580
C     -4.354149    1.580611    0.601210
N      4.047643    0.282874    0.692292
N     -3.582939   -0.693159    0.858081
C     -2.805369   -1.835698    0.291018
C     -1.557860   -2.100449    1.152628
S     -0.268593   -3.055320    0.253759
C      3.715340   -1.180037    0.710535
C      2.259339   -1.558457    1.035919
C     -3.704011   -3.090356    0.283523
O     -5.026096   -2.798183    0.393032
O     -3.360476   -4.255233    0.167971
C      4.336956   -1.948753   -0.461193
O      5.142018   -1.514486   -1.273009
O      4.020300   -3.260620   -0.476090
S      1.083163   -1.630853   -0.375945
H      4.846954    1.039392   -1.764503
H      3.611026    2.507645   -3.304719
H      1.393406    3.412364   -2.663861
H      1.688305    1.427027    1.127794
H     -2.823105    4.320231   -0.729613
H     -1.372953    0.321473   -0.392593
H     -4.945659    3.645179    0.379324
H     -5.279182    1.316116    1.108822
H      5.044713    0.357837    0.469140
H     -4.580825   -0.928278    0.878241
H     -2.562822   -1.636170   -0.760159
H     -1.830479   -2.689391    2.036361
H     -1.113269   -1.173128    1.528595
H      4.295497   -1.538646    1.574009
H      2.278838   -2.561101    1.480012
H      1.847254   -0.885138    1.794718
H     -5.459645   -3.677662    0.348632
H      4.485640   -3.613794   -1.264186
