46
Conformer 46, Energy = 125.1831 kcal/mol
C      2.512829    0.416535   -2.429614
C      2.236635    1.636230   -3.054040
C      0.921827    1.977083   -3.371105
C     -0.121544    1.092105   -3.091144
C      0.181160   -0.153862   -2.530265
C      1.479134   -0.469730   -2.114681
N     -1.445990    1.424241   -3.435231
N     -2.228167    1.918775   -2.580178
C     -1.814297    2.135099   -1.248812
C     -1.396160    3.401571   -0.839696
C     -1.909849    1.108790   -0.293854
C     -1.565316    1.306490    1.050246
C     -1.038233    3.624543    0.488233
C     -1.110275    2.581125    1.416442
N      1.671111   -1.696143   -1.457541
N     -1.485711    0.277972    1.997274
C     -2.183289   -1.018270    1.770979
C     -1.281961   -2.055176    1.076237
S      0.084806   -2.725143    2.107678
C      2.604344   -1.713489   -0.291823
C      2.638418   -3.106645    0.362836
C     -2.744878   -1.580063    3.083201
O     -2.590799   -0.745554    4.140741
O     -3.321142   -2.646980    3.228656
C      2.357723   -0.669566    0.805159
O      3.077430   -0.507347    1.783121
O      1.254051    0.075091    0.648468
S      1.058350   -3.961582    0.778965
H      3.544715    0.185341   -2.184912
H      3.045398    2.325596   -3.281626
H      0.704903    2.932490   -3.840566
H     -0.623791   -0.858905   -2.343469
H     -1.344976    4.211357   -1.561993
H     -2.243934    0.141013   -0.650881
H     -0.693819    4.606797    0.800726
H     -0.795840    2.773184    2.440066
H      1.935815   -2.399147   -2.146197
H     -1.655719    0.608303    2.951993
H     -3.078051   -0.839774    1.160792
H     -0.848918   -1.627596    0.168749
H     -1.900050   -2.910439    0.779642
H      3.614590   -1.506587   -0.668681
H      3.251866   -3.097672    1.271195
H      3.142423   -3.788496   -0.333021
H     -2.981754   -1.246299    4.888793
H      1.086939    0.564734    1.478106
