46
Conformer 23, Energy = 117.1219 kcal/mol
C     -4.149321    0.877178   -0.158479
C     -4.117261    1.430715   -1.441382
C     -2.936936    1.990051   -1.933539
C     -1.789480    2.027950   -1.140476
C     -1.855253    1.498954    0.160529
C     -3.015292    0.902336    0.657028
N     -0.566422    2.422978   -1.721358
N      0.160488    3.055338   -0.922154
C      1.496422    2.656156   -1.115117
C      2.426488    3.461170   -1.763390
C      1.904195    1.412583   -0.603329
C      3.193849    0.914927   -0.781192
C      3.739683    3.012848   -1.907903
C      4.116332    1.755486   -1.413995
N     -3.001365    0.292460    1.920673
N      3.612201   -0.304425   -0.259499
C      2.648367   -1.352025    0.173353
C      1.911724   -1.967528   -1.025863
S      0.521609   -3.082031   -0.577736
C     -2.533893   -1.132887    2.024005
C     -1.147496   -1.467814    1.436461
C      3.443225   -2.457703    0.874235
O      2.857108   -2.914318    2.000784
O      4.508099   -2.927617    0.498128
C     -3.635998   -2.136123    1.663434
O     -4.811404   -1.876758    1.446097
O     -3.236880   -3.424002    1.718037
S     -1.096850   -1.823761   -0.367003
H     -5.071303    0.417766    0.190409
H     -5.005028    1.397741   -2.067594
H     -2.901562    2.372597   -2.950046
H     -0.972718    1.524171    0.792075
H      2.129445    4.431323   -2.149897
H      1.157852    0.833185   -0.072772
H      4.475563    3.641295   -2.403138
H      5.150246    1.438344   -1.531152
H     -3.960810    0.317004    2.280872
H      4.447985   -0.688435   -0.701123
H      1.961222   -0.922657    0.910428
H      2.612070   -2.571829   -1.615418
H      1.526921   -1.205015   -1.710425
H     -2.420542   -1.266085    3.109985
H     -0.436075   -0.665160    1.654230
H     -0.780924   -2.367183    1.945474
H      3.479115   -3.595622    2.333997
H     -4.037398   -3.935578    1.472715
