46
Conformer 20, Energy = 116.7444 kcal/mol
C      3.030220    2.404333   -0.660226
C      2.512082    3.455307   -1.420083
C      1.477848    3.213514   -2.319122
C      0.960274    1.924326   -2.465480
C      1.511136    0.875839   -1.711600
C      2.515623    1.104086   -0.763918
N     -0.036897    1.681023   -3.431860
N     -1.252714    1.645906   -3.105516
C     -1.628972    1.707660   -1.749632
C     -1.881073    2.933783   -1.132740
C     -1.815374    0.519341   -1.024085
C     -2.214427    0.529113    0.314027
C     -2.248670    2.972994    0.207979
C     -2.392133    1.780944    0.923299
N      3.116917    0.084274   -0.019260
N     -2.307049   -0.608619    1.112380
C     -2.479388   -1.974221    0.548042
C     -1.163534   -2.763526    0.673192
S     -0.332794   -2.985912   -0.946512
C      2.302918   -1.087788    0.421109
C      2.624776   -2.279411   -0.490276
C     -3.556632   -2.728759    1.347071
O     -4.125943   -1.989295    2.330718
O     -3.920387   -3.880786    1.169889
C      2.697348   -1.407725    1.871465
O      3.625800   -0.897795    2.486013
O      1.900267   -2.299980    2.488269
S      1.505792   -3.734147   -0.409355
H      3.849827    2.613145    0.023972
H      2.923935    4.455494   -1.317482
H      1.079837    4.024707   -2.922456
H      1.133064   -0.124787   -1.891900
H     -1.767322    3.855549   -1.695851
H     -1.624907   -0.409327   -1.548647
H     -2.413810    3.927051    0.700985
H     -2.652969    1.838702    1.978070
H      3.668902    0.451232    0.761836
H     -2.949145   -0.470245    1.899574
H     -2.876725   -1.932995   -0.472996
H     -1.330094   -3.768134    1.076091
H     -0.479139   -2.246062    1.351207
H      1.243125   -0.814307    0.431063
H      2.656293   -1.968919   -1.540726
H      3.629442   -2.655219   -0.260531
H     -4.792527   -2.594418    2.722335
H      2.277203   -2.375944    3.390636
