46
Conformer 44, Energy = 122.8635 kcal/mol
C      1.813739    0.507927   -3.297682
C      1.562162    1.839686   -3.637572
C      1.279268    2.766567   -2.638932
C      1.236007    2.364842   -1.303138
C      1.531244    1.030561   -0.978927
C      1.818878    0.079065   -1.962344
N      0.981006    3.317615   -0.296729
N     -0.101851    3.306661    0.342776
C     -1.163673    2.460648   -0.040447
C     -1.996429    2.795128   -1.109732
C     -1.448740    1.312579    0.722644
C     -2.544498    0.490522    0.440532
C     -3.063473    1.968716   -1.443553
C     -3.319788    0.824563   -0.681995
N      1.988930   -1.284866   -1.716027
N     -2.859388   -0.688041    1.114548
C     -2.284717   -1.116454    2.415210
C     -0.887621   -1.746033    2.276740
S     -0.962878   -3.332100    1.347457
C      2.026963   -1.841751   -0.342480
C      1.553789   -3.299160   -0.381137
C     -2.383946   -0.025543    3.485238
O     -1.205130    0.345592    4.026733
O     -3.416600    0.512771    3.861416
C      3.444676   -1.780872    0.226213
O      3.747897   -1.571176    1.390309
O      4.409091   -2.021734   -0.692668
S      1.004779   -3.939380    1.248603
H      1.997775   -0.208719   -4.096103
H      1.576101    2.146592   -4.679475
H      1.084466    3.802907   -2.897158
H      1.525937    0.774441    0.074642
H     -1.802130    3.695713   -1.685541
H     -0.781771    1.101869    1.548838
H     -3.696637    2.210510   -2.292244
H     -4.151706    0.186775   -0.974697
H      2.714113   -1.687114   -2.314004
H     -3.863554   -0.864516    1.084409
H     -2.943732   -1.905644    2.804060
H     -0.202127   -1.066850    1.770262
H     -0.476651   -1.971081    3.267645
H      1.369346   -1.265484    0.308872
H      0.730431   -3.426465   -1.093050
H      2.360233   -3.953215   -0.730707
H     -1.445430    1.068438    4.648199
H      5.245641   -1.914490   -0.190037
