46
Conformer 22, Energy = 117.0361 kcal/mol
C      3.808518    1.037580   -2.356483
C      3.297547    2.225218   -2.898570
C      2.112934    2.767088   -2.404751
C      1.435265    2.110946   -1.382286
C      1.974308    0.928765   -0.844152
C      3.173829    0.376259   -1.294087
N      0.231320    2.598341   -0.841841
N     -0.734823    2.135070   -1.489400
C     -1.849759    1.995988   -0.643462
C     -2.701830    3.055964   -0.347212
C     -2.108512    0.727399   -0.094680
C     -3.191882    0.483549    0.751790
C     -3.779115    2.850543    0.511726
C     -4.007718    1.582254    1.062384
N      3.708679   -0.837162   -0.852657
N     -3.446017   -0.730920    1.396560
C     -2.775204   -2.017161    1.048155
C     -1.341419   -2.078809    1.602351
S     -0.512226   -3.691015    1.305557
C      3.289507   -1.530418    0.400677
C      1.952908   -2.272793    0.228274
C     -2.910470   -2.335613   -0.445976
O     -4.200799   -2.528066   -0.813126
O     -2.024217   -2.401960   -1.282396
C      3.433185   -0.611614    1.621157
O      4.497428   -0.211432    2.075692
O      2.277656   -0.187878    2.169248
S      1.462494   -3.251784    1.705603
H      4.721618    0.626541   -2.782495
H      3.821985    2.717269   -3.713515
H      1.708946    3.683478   -2.823856
H      1.399480    0.471812   -0.049495
H     -2.513926    4.037986   -0.770674
H     -1.415981   -0.056412   -0.377834
H     -4.436475    3.677902    0.766342
H     -4.840025    1.460704    1.752882
H      4.726116   -0.823010   -0.931172
H     -4.451673   -0.869025    1.501907
H     -3.338729   -2.805505    1.567258
H     -1.365635   -1.912353    2.685633
H     -0.722460   -1.290628    1.174340
H      4.040847   -2.316225    0.567004
H      2.033636   -2.967103   -0.616301
H      1.145204   -1.581408   -0.008556
H     -4.148478   -2.664257   -1.782963
H      2.563961    0.421894    2.882367
