46
Conformer 24, Energy = 117.1796 kcal/mol
C     -3.954202    0.723004   -0.166519
C     -3.835930    1.469929   -1.342167
C     -2.702254    2.252979   -1.562882
C     -1.678127    2.288518   -0.612197
C     -1.828337    1.555792    0.573587
C     -2.955469    0.766091    0.810530
N     -0.466772    2.985405   -0.788160
N      0.035897    2.746675   -1.909837
C      1.407819    2.488370   -1.743774
C      2.385588    3.443673   -1.999523
C      1.792524    1.204758   -1.325502
C      3.123513    0.864896   -1.085044
C      3.729411    3.113443   -1.824052
C      4.090105    1.833571   -1.379379
N     -3.053921    0.021495    1.990860
N      3.522566   -0.413615   -0.697198
C      2.557950   -1.342231   -0.040683
C      1.954868   -2.269823   -1.103570
S      0.476321   -3.238500   -0.609832
C     -2.437067   -1.344491    2.067389
C     -1.048068   -1.555474    1.441166
C      3.313266   -2.169140    1.005742
O      2.517344   -2.711179    1.950149
O      4.524527   -2.330166    1.060808
C     -3.428085   -2.460548    1.714550
O     -3.174097   -3.644429    1.558115
O     -4.717867   -2.044944    1.678646
S     -1.016467   -1.836740   -0.375324
H     -4.841702    0.113259   -0.020588
H     -4.622902    1.432156   -2.091000
H     -2.606109    2.819332   -2.485211
H     -1.042166    1.607225    1.322382
H      2.101077    4.435846   -2.335883
H      0.995709    0.482113   -1.185812
H      4.500844    3.849571   -2.034715
H      5.146369    1.600621   -1.263764
H     -4.051690   -0.107945    2.196520
H      4.450292   -0.443511   -0.268968
H      1.807328   -0.762299    0.507004
H      1.685430   -1.715887   -2.009851
H      2.708345   -3.003370   -1.416273
H     -2.289695   -1.479134    3.148758
H     -0.611414   -2.444198    1.911693
H     -0.386304   -0.716326    1.675814
H      3.135166   -3.201303    2.533965
H     -5.213618   -2.863469    1.459000
