46
Conformer 26, Energy = 118.4303 kcal/mol
C     -4.499648    1.384941    0.315993
C     -4.271399    2.739008    0.033134
C     -3.075031    3.135926   -0.558547
C     -2.117139    2.177966   -0.871946
C     -2.378260    0.822792   -0.602739
C     -3.547259    0.395911    0.026349
N     -0.881424    2.505648   -1.457940
N     -0.070672    2.816532   -0.556268
C      1.220363    2.391669   -0.912255
C      2.044097    3.126460   -1.760664
C      1.687897    1.182213   -0.373856
C      2.962416    0.688516   -0.656022
C      3.304947    2.634217   -2.092216
C      3.747472    1.417519   -1.558793
N     -3.866997   -0.928864    0.279036
N      3.422340   -0.553500   -0.195112
C      2.942899   -1.049745    1.132671
C      1.846463   -2.110320    0.932869
S      0.738531   -2.244722    2.396842
C     -3.005151   -2.117077    0.075965
C     -2.086249   -2.451792    1.267557
C      4.126354   -1.683976    1.891064
O      5.332095   -1.407735    1.328388
O      4.080870   -2.359904    2.907958
C     -2.362285   -2.220407   -1.312459
O     -2.901319   -1.985162   -2.384769
O     -1.084249   -2.652100   -1.313419
S     -0.920305   -1.159133    1.841077
H     -5.450897    1.107097    0.764289
H     -5.030808    3.478389    0.274621
H     -2.887930    4.182192   -0.776050
H     -1.598830    0.125132   -0.881576
H      1.692220    4.065523   -2.177750
H      1.008361    0.634581    0.270425
H      3.941390    3.189918   -2.774644
H      4.726903    1.046380   -1.852047
H     -4.559544   -1.047065    1.012844
H      4.447407   -0.592384   -0.219283
H      2.614662   -0.204603    1.750510
H      1.239796   -1.898089    0.047333
H      2.291742   -3.100059    0.777949
H     -3.711526   -2.961020    0.050906
H     -1.527361   -3.367748    1.046104
H     -2.717856   -2.675869    2.136001
H      5.971326   -1.857532    1.922237
H     -0.838415   -2.619726   -2.264797
