46
Conformer 33, Energy = 120.2676 kcal/mol
C     -4.267631    0.617046   -0.340254
C     -4.050052    1.618255   -1.290633
C     -2.840366    2.311085   -1.310047
C     -1.841657    2.007182   -0.380347
C     -2.093897    1.021637    0.587309
C     -3.292561    0.306069    0.614015
N     -0.568909    2.609755   -0.368996
N     -0.096136    2.734929   -1.522594
C      1.297249    2.567220   -1.449322
C      2.179778    3.641234   -1.354395
C      1.806625    1.264523   -1.436357
C      3.162571    1.007283   -1.245107
C      3.549196    3.403413   -1.204680
C      4.034933    2.091662   -1.130755
N     -3.504765   -0.701653    1.567702
N      3.587755   -0.317285   -1.037622
C      3.452521   -0.773240    0.384184
C      2.010900   -1.143860    0.786867
S      1.254983   -2.502541   -0.190456
C     -2.977578   -2.083737    1.303717
C     -1.453274   -2.244670    1.184189
C      4.437296   -1.920669    0.642996
O      4.253465   -2.558301    1.817194
O      5.391416   -2.218383   -0.063392
C     -3.779232   -2.867205    0.260667
O     -3.405606   -3.829779   -0.389991
O     -5.076768   -2.481103    0.184458
S     -0.697540   -1.877176   -0.442400
H     -5.218230    0.090316   -0.350138
H     -4.820122    1.851341   -2.021187
H     -2.669263    3.077624   -2.060834
H     -1.325930    0.809972    1.326259
H      1.798043    4.657665   -1.375773
H      1.112497    0.436076   -1.548881
H      4.237070    4.240959   -1.120125
H      5.097861    1.928446   -0.973743
H     -4.518597   -0.805068    1.679247
H      4.563523   -0.430248   -1.326111
H      3.797257    0.035549    1.044487
H      1.372351   -0.257776    0.733871
H      1.986718   -1.465430    1.834108
H     -3.226370   -2.611481    2.237114
H     -1.210579   -3.291609    1.402869
H     -0.959290   -1.626441    1.941749
H      4.960444   -3.239332    1.825837
H     -5.450100   -3.082254   -0.495734
