46
Conformer 40, Energy = 122.5024 kcal/mol
C      2.969157    2.032974   -1.452290
C      2.284504    3.148497   -1.934192
C      1.145785    3.602203   -1.270519
C      0.669906    2.935419   -0.135826
C      1.376609    1.827300    0.348216
C      2.530927    1.372348   -0.298682
N     -0.448264    3.448498    0.549877
N     -1.599492    2.982073    0.350620
C     -1.784635    1.826666   -0.433047
C     -1.879288    1.902408   -1.823418
C     -1.968893    0.587579    0.204109
C     -2.229088   -0.580747   -0.515976
C     -2.083242    0.746563   -2.568323
C     -2.237346   -0.479809   -1.916634
N      3.200866    0.218623    0.159811
N     -2.362731   -1.847712    0.044342
C     -2.661969   -2.126387    1.468738
C     -1.446143   -2.008061    2.402211
S     -0.233695   -3.386194    2.256968
C      2.544046   -1.055177   -0.295533
C      1.959353   -1.769360    0.930197
C     -3.897438   -1.355103    1.949163
O     -3.675319   -0.494745    2.963213
O     -5.022936   -1.451646    1.479010
C      3.593834   -1.949771   -0.984326
O      3.476555   -3.113727   -1.328901
O      4.763090   -1.303300   -1.232847
S      0.709796   -3.022240    0.467843
H      3.852738    1.686571   -1.982609
H      2.640857    3.665997   -2.820761
H      0.621046    4.482050   -1.633840
H      1.029696    1.333350    1.250528
H     -1.776610    2.861582   -2.322206
H     -1.910600    0.585863    1.285902
H     -2.124698    0.795047   -3.652963
H     -2.380937   -1.372096   -2.523189
H      4.159464    0.216435   -0.210248
H     -2.893105   -2.468946   -0.565297
H     -2.987389   -3.175603    1.520744
H     -0.909075   -1.063543    2.288339
H     -1.781655   -2.046793    3.444730
H      1.774069   -0.837239   -1.047870
H      2.750400   -2.263159    1.505841
H      1.475935   -1.037132    1.584623
H     -4.545587   -0.058664    3.093159
H      5.311502   -1.990891   -1.669716
