46
Conformer 27, Energy = 118.8635 kcal/mol
C      3.652986    1.436296   -0.222961
C      3.436387    2.813545   -0.092236
C      2.203341    3.372654   -0.440263
C      1.184440    2.557330   -0.926435
C      1.432078    1.190978   -1.092421
C      2.638293    0.606828   -0.705735
N     -0.094778    3.043265   -1.247333
N     -0.803353    3.043502   -0.212852
C     -2.046804    2.455882   -0.508814
C     -3.125587    3.192698   -0.989063
C     -2.190041    1.072037   -0.318257
C     -3.368512    0.394425   -0.624627
C     -4.310855    2.537792   -1.326044
C     -4.416427    1.149929   -1.167184
N      2.762013   -0.779347   -0.867409
N     -3.486655   -0.999749   -0.559036
C     -2.704731   -1.766009    0.463338
C     -1.425349   -2.348471   -0.173614
S     -0.128622   -2.849998    1.044518
C      3.063824   -1.616176    0.335178
C      2.406282   -1.192424    1.658784
C     -3.636200   -2.879582    0.985334
O     -3.040923   -3.836173    1.728700
O     -4.856867   -2.910045    0.813342
C      4.579035   -1.739701    0.542242
O      5.179118   -1.840399    1.599712
O      5.269587   -1.771245   -0.624753
S      0.577043   -1.063358    1.764469
H      4.623071    1.034474    0.056095
H      4.228930    3.450632    0.292645
H      2.027431    4.437316   -0.316379
H      0.645510    0.559468   -1.495022
H     -3.028980    4.264931   -1.128912
H     -1.324958    0.535965    0.055668
H     -5.149151    3.100591   -1.728999
H     -5.339208    0.659089   -1.472386
H      3.511666   -0.951762   -1.548448
H     -4.475775   -1.271936   -0.510139
H     -2.492948   -1.120888    1.326355
H     -0.963107   -1.653744   -0.881099
H     -1.676586   -3.249684   -0.747571
H      2.739668   -2.635174    0.087680
H      2.801612   -0.223685    1.986365
H      2.698461   -1.899203    2.445671
H     -3.778725   -4.418153    2.011966
H      6.204364   -1.892720   -0.341100
