46
Conformer 17, Energy = 115.0838 kcal/mol
C      3.611869    2.003228   -1.212988
C      3.199926    3.338872   -1.166368
C      2.014308    3.675239   -0.515426
C      1.235418    2.676480    0.079900
C      1.670902    1.341339    0.025929
C      2.842008    0.973060   -0.642351
N      0.036683    2.964814    0.774122
N     -0.826523    3.453998    0.005398
C     -1.758040    2.481522   -0.449233
C     -2.350340    2.681255   -1.700077
C     -2.068635    1.307070    0.264212
C     -2.882853    0.304067   -0.272068
C     -3.185591    1.708958   -2.249923
C     -3.424245    0.524087   -1.549277
N      3.360549   -0.325185   -0.643321
N     -3.051532   -0.943228    0.309552
C     -2.711608   -1.271359    1.715033
C     -1.216972   -1.585736    1.931466
S     -0.512983   -2.778825    0.729809
C      2.487248   -1.526061   -0.456822
C      2.444827   -1.893450    1.036511
C     -3.546826   -2.468275    2.200879
O     -4.519220   -2.845125    1.330767
O     -3.430497   -3.053921    3.267691
C      3.084342   -2.685701   -1.285628
O      2.953410   -3.888595   -1.119303
O      3.823659   -2.244666   -2.343031
S      1.308654   -3.239930    1.563092
H      4.556533    1.770099   -1.703586
H      3.814890    4.114720   -1.621977
H      1.697140    4.712982   -0.462507
H      1.060958    0.600551    0.532546
H     -2.129426    3.586560   -2.261446
H     -1.621716    1.181829    1.245103
H     -3.624377    1.858419   -3.235730
H     -4.036128   -0.245442   -2.022354
H      3.980176   -0.475790   -1.447977
H     -3.890179   -1.442095    0.002015
H     -3.016948   -0.439206    2.362712
H     -0.622126   -0.671687    1.854184
H     -1.067307   -1.984018    2.942775
H      1.494409   -1.325084   -0.875544
H      2.190720   -1.021407    1.647554
H      3.446463   -2.199766    1.361901
H     -4.924377   -3.626778    1.764090
H      4.103355   -3.077824   -2.781335
