46
Conformer 11, Energy = 112.9995 kcal/mol
C      4.249684    1.628445   -0.680222
C      3.823562    2.709413   -1.459330
C      2.486995    3.107299   -1.431565
C      1.578473    2.429766   -0.619273
C      2.027300    1.371297    0.182245
C      3.353230    0.944086    0.149252
N      0.219140    2.775793   -0.572359
N     -0.402164    2.137924   -1.453803
C     -1.730713    1.952387   -1.037805
C     -2.718043    2.909183   -1.261550
C     -2.055459    0.764039   -0.363258
C     -3.338419    0.520864    0.127376
C     -4.004380    2.696124   -0.772706
C     -4.299605    1.523364   -0.067221
N      3.754340   -0.195426    0.873819
N     -3.662734   -0.575368    0.927252
C     -2.880255   -1.844519    0.869304
C     -1.728733   -1.803225    1.890413
S     -0.482884   -3.124807    1.604713
C      3.441817   -1.518927    0.238058
C      1.956266   -1.923755    0.255148
C     -3.832436   -3.020659    1.181925
O     -5.145092   -2.678844    1.099864
O     -3.537719   -4.174373    1.445836
C      4.075178   -1.630567   -1.156825
O      5.259414   -1.445597   -1.408539
O      3.226230   -1.946966   -2.153146
S      1.323546   -2.200353    1.956282
H      5.291744    1.320581   -0.737359
H      4.533030    3.231713   -2.096000
H      2.148438    3.936453   -2.045948
H      1.316627    0.881777    0.842428
H     -2.474245    3.827385   -1.787389
H     -1.252239    0.051406   -0.211559
H     -4.773335    3.450491   -0.916763
H     -5.300951    1.401299    0.340464
H      4.766442   -0.149737    1.013064
H     -4.666588   -0.782130    0.904320
H     -2.523501   -2.004679   -0.155905
H     -1.223526   -0.833549    1.866828
H     -2.117141   -1.933789    2.907114
H      3.979478   -2.275091    0.828183
H      1.322084   -1.194439   -0.255309
H      1.845370   -2.876086   -0.276723
H     -5.612088   -3.517415    1.305754
H      3.783860   -1.920787   -2.960112
