46
Conformer 31, Energy = 119.7381 kcal/mol
C      4.089022    2.216675   -0.675061
C      3.458123    3.465533   -0.677580
C      2.098594    3.564843   -0.981964
C      1.366751    2.417599   -1.294037
C      2.024294    1.182074   -1.330582
C      3.376308    1.060273   -1.005113
N     -0.013827    2.442128   -1.560791
N     -0.647256    2.679622   -0.506756
C     -1.941650    2.132887   -0.584209
C     -2.885655    2.537547   -1.531460
C     -2.280156    1.116502    0.317346
C     -3.507133    0.454304    0.248431
C     -4.128294    1.903611   -1.598067
C     -4.429457    0.855271   -0.722787
N      3.968898   -0.214529   -0.911623
N     -3.752583   -0.661291    1.075015
C     -3.245432   -1.957568    0.502735
C     -1.838654   -2.304923    1.033162
S     -0.537269   -1.810173   -0.165680
C      3.685302   -0.914502    0.388052
C      2.487507   -1.878369    0.255977
C     -4.213922   -3.086849    0.898819
O     -5.464131   -2.638253    1.179275
O     -3.983606   -4.285093    0.929861
C      4.939427   -1.702193    0.792271
O      6.022711   -1.666717    0.224147
O      4.799695   -2.418354    1.926043
S      0.991714   -1.163937    1.050334
H      5.140487    2.157432   -0.406368
H      4.022504    4.359082   -0.423887
H      1.602347    4.530839   -0.960158
H      1.453962    0.299914   -1.606842
H     -2.640823    3.332656   -2.230101
H     -1.553534    0.825449    1.070913
H     -4.853701    2.212321   -2.346188
H     -5.388994    0.352772   -0.811301
H      4.984744   -0.135593   -1.025744
H     -4.766238   -0.764731    1.200574
H     -3.286167   -1.936774   -0.595154
H     -1.707591   -3.379825    1.189637
H     -1.668167   -1.809213    1.995279
H      3.553577   -0.176234    1.191546
H      2.280779   -2.080375   -0.800833
H      2.666304   -2.841986    0.742310
H     -5.963240   -3.454652    1.397662
H      5.684430   -2.817196    2.071866
