46
Conformer  8, Energy = 111.6173 kcal/mol
C      3.959396    1.832855   -1.578402
C      3.441010    3.057404   -2.023405
C      2.066170    3.277412   -2.018445
C      1.208909    2.255055   -1.607461
C      1.747542    1.024268   -1.198508
C      3.123150    0.810249   -1.109748
N     -0.187182    2.404472   -1.573988
N     -0.517566    3.052256   -0.555247
C     -1.756201    2.584927   -0.081158
C     -2.899989    3.379151   -0.111624
C     -1.824751    1.308113    0.499752
C     -3.019160    0.793911    1.006061
C     -4.103074    2.891640    0.409577
C     -4.161064    1.602341    0.956583
N      3.683793   -0.392492   -0.702572
N     -3.071120   -0.509981    1.527702
C     -2.757853   -1.578399    0.523257
C     -1.374120   -2.191251    0.817106
S     -0.600566   -2.837405   -0.723134
C      2.929151   -1.375445    0.125396
C      2.449145   -2.508610   -0.790816
C     -3.848403   -2.659408    0.624976
O     -3.789652   -3.601835   -0.333852
O     -4.746563   -2.688430    1.462587
C      3.884996   -1.943593    1.184879
O      5.107243   -1.903822    1.138839
O      3.264931   -2.508715    2.239431
S      1.185617   -3.634948   -0.071326
H      5.037801    1.688652   -1.598822
H      4.114074    3.838625   -2.366805
H      1.659288    4.232748   -2.341637
H      1.044809    0.240959   -0.929251
H     -2.854063    4.377985   -0.539757
H     -0.911404    0.723084    0.565214
H     -4.999918    3.514308    0.389425
H     -5.110278    1.237572    1.335541
H      4.663523   -0.316704   -0.415134
H     -3.977579   -0.700773    1.962188
H     -2.825785   -1.164347   -0.490924
H     -1.468034   -3.025575    1.522892
H     -0.694836   -1.453195    1.251015
H      2.116557   -0.875227    0.664879
H      3.302949   -3.143748   -1.060419
H      2.060404   -2.113290   -1.740219
H     -4.549743   -4.189855   -0.138529
H      3.998445   -2.810936    2.822850
