46
Conformer 36, Energy = 120.8318 kcal/mol
C      3.577014    2.475606   -0.046504
C      2.918290    3.692301   -0.267762
C      1.664640    3.707446   -0.875795
C      1.085906    2.509028   -1.287315
C      1.790560    1.308389   -1.107009
C      3.006768    1.253083   -0.425357
N     -0.198683    2.435620   -1.856170
N     -1.059494    2.603275   -0.961281
C     -2.183226    1.790945   -1.205491
C     -2.964989    1.893739   -2.356510
C     -2.500158    0.815241   -0.245393
C     -3.499066   -0.133594   -0.458152
C     -4.026303    1.013112   -2.552101
C     -4.287099    0.014263   -1.607730
N      3.698470    0.076654   -0.183943
N     -3.869713   -1.123728    0.456645
C     -2.914595   -1.792232    1.394854
C     -1.784765   -2.614206    0.741179
S     -0.440711   -1.761409   -0.168041
C      3.096640   -1.278236   -0.237889
C      2.354885   -1.671759    1.055436
C     -2.527458   -0.948707    2.608057
O     -1.710106   -1.590805    3.470572
O     -2.964337    0.153338    2.905268
C      4.238535   -2.292217   -0.374319
O      5.367032   -2.182194    0.084109
O      3.883689   -3.413372   -1.036731
S      0.715275   -0.892816    1.296102
H      4.549261    2.493836    0.440732
H      3.379464    4.623674    0.049597
H      1.133645    4.643322   -1.020472
H      1.322767    0.407168   -1.487888
H     -2.738006    2.652259   -3.099723
H     -1.903897    0.809803    0.660055
H     -4.641999    1.091009   -3.443844
H     -5.110511   -0.675086   -1.783601
H      4.474227    0.151259    0.471498
H     -4.628548   -0.719000    1.014280
H     -3.554499   -2.559557    1.858431
H     -1.308400   -3.260995    1.487014
H     -2.242870   -3.288451    0.007462
H      2.479856   -1.390196   -1.135539
H      2.213075   -2.757296    1.116948
H      2.962966   -1.393628    1.924863
H     -1.562014   -0.931597    4.182785
H      4.708485   -3.943288   -1.072356
