46
Conformer  7, Energy = 111.2753 kcal/mol
C     -4.185937    1.316406    0.165478
C     -3.984843    2.652299   -0.202994
C     -2.726758    3.078903   -0.622524
C     -1.672504    2.170429   -0.673109
C     -1.892610    0.833872   -0.291676
C     -3.135256    0.388019    0.161562
N     -0.415462    2.528971   -1.187640
N      0.343124    2.926985   -0.273144
C      1.670449    2.609562   -0.622831
C      2.585031    3.572002   -1.032613
C      2.080202    1.268025   -0.540227
C      3.357947    0.839958   -0.891323
C      3.876005    3.180937   -1.388224
C      4.247359    1.828756   -1.331812
N     -3.413272   -0.952565    0.452579
N      3.750200   -0.496078   -0.952240
C      2.921851   -1.645743   -0.480409
C      1.688518   -1.871630   -1.374447
S      0.957549   -3.556747   -1.302564
C     -2.349067   -1.840564    1.020847
C     -1.740750   -2.704747   -0.099846
C      2.620923   -1.526459    1.017113
O      3.694285   -1.842795    1.780491
O      1.591362   -1.140092    1.548108
C     -2.986925   -2.743007    2.100945
O     -2.488804   -3.700518    2.669177
O     -4.247085   -2.361405    2.438257
S     -0.175429   -3.525278    0.412793
H     -5.186068    1.004214    0.458392
H     -4.816361    3.351761   -0.180149
H     -2.569972    4.108278   -0.930819
H     -1.060709    0.145147   -0.380340
H      2.288209    4.614478   -1.092070
H      1.332694    0.577632   -0.176342
H      4.592340    3.923568   -1.730472
H      5.248676    1.551610   -1.655078
H     -4.258134   -1.035159    1.029027
H      4.729578   -0.608359   -0.691575
H      3.558795   -2.533841   -0.594104
H      0.881404   -1.162500   -1.186819
H      1.983307   -1.728469   -2.420838
H     -1.595496   -1.232086    1.536164
H     -2.442990   -3.488174   -0.406592
H     -1.539182   -2.085670   -0.979489
H      3.383884   -1.683201    2.696955
H     -4.500074   -3.006725    3.133391
