46
Conformer 34, Energy = 120.3601 kcal/mol
C     -4.528647    1.241035    0.407361
C     -4.422984    2.507339   -0.185349
C     -3.267096    2.862749   -0.877943
C     -2.218235    1.953676   -0.968029
C     -2.355474    0.680784   -0.387262
C     -3.504642    0.288311    0.300627
N     -1.011828    2.249635   -1.627897
N     -0.215960    2.771558   -0.814927
C      1.105125    2.343212   -1.051593
C      1.714327    2.339707   -2.309030
C      1.821308    1.843870    0.043454
C      3.095251    1.284652   -0.098332
C      2.996131    1.807034   -2.466281
C      3.674946    1.267782   -1.368516
N     -3.649729   -0.923178    0.984012
N      3.721723    0.697982    1.015775
C      3.486133   -0.775448    1.256936
C      2.027331   -1.229266    1.070650
S      1.496144   -2.474547    2.319676
C     -2.715459   -2.077003    0.833093
C     -1.395123   -1.841772    1.589297
C      4.474781   -1.606334    0.423880
O      4.158956   -2.907819    0.298204
O      5.524153   -1.190915   -0.052222
C     -2.571855   -2.489525   -0.638133
O     -1.581221   -2.417832   -1.347209
O     -3.737074   -2.952452   -1.153515
S     -0.222644   -3.247616    1.481036
H     -5.430127    1.006566    0.970008
H     -5.238669    3.219364   -0.089193
H     -3.173174    3.846841   -1.326829
H     -1.507328    0.017926   -0.511951
H      1.181606    2.733070   -3.170489
H      1.357808    1.875398    1.027232
H      3.461403    1.796915   -3.448766
H      4.664700    0.843329   -1.520166
H     -4.619894   -1.237194    0.944651
H      4.734967    0.817596    0.902926
H      3.790567   -0.929863    2.299980
H      1.865728   -1.625925    0.062533
H      1.340367   -0.398984    1.230597
H     -3.200522   -2.930516    1.327976
H     -0.883467   -0.954569    1.218091
H     -1.614975   -1.666244    2.648784
H      4.895589   -3.296760   -0.218977
H     -3.522914   -3.122571   -2.095199
