46
Conformer 25, Energy = 117.7329 kcal/mol
C      3.812246    1.823667   -0.796891
C      3.414016    3.086399   -1.257936
C      2.096892    3.302463   -1.664198
C      1.186516    2.249966   -1.625274
C      1.617094    0.983527   -1.198392
C      2.908450    0.755387   -0.721029
N     -0.165755    2.399669   -1.981006
N     -0.804161    2.785445   -0.975055
C     -2.046288    2.129994   -0.907510
C     -3.196489    2.655270   -1.484323
C     -2.120953    0.924277   -0.185761
C     -3.317568    0.230829   -0.007329
C     -4.399959    1.963739   -1.361797
C     -4.450844    0.763229   -0.640458
N      3.362303   -0.497073   -0.305198
N     -3.433181   -0.993939    0.643755
C     -2.399432   -1.626244    1.501202
C     -1.507318   -2.666685    0.789725
S     -0.908458   -2.269589   -0.892944
C      2.401193   -1.577239    0.070955
C      2.148045   -2.459365   -1.158243
C     -1.605754   -0.684573    2.406340
O     -2.382258    0.197884    3.075375
O     -0.397804   -0.709747    2.606223
C      2.992955   -2.430872    1.206029
O      2.513145   -3.442294    1.694403
O      4.167969   -1.949339    1.693387
S      0.673566   -3.556315   -1.135518
H      4.849561    1.679551   -0.499219
H      4.135708    3.899050   -1.300699
H      1.778676    4.282831   -2.005639
H      0.883733    0.185013   -1.232055
H     -3.148984    3.586113   -2.038156
H     -1.190173    0.554428    0.228296
H     -5.300939    2.350997   -1.832215
H     -5.402494    0.235550   -0.583921
H      4.118918   -0.432644    0.382131
H     -4.366668   -1.120806    1.026940
H     -2.967507   -2.222562    2.231662
H     -0.648225   -2.912445    1.420712
H     -2.093262   -3.588379    0.675563
H      1.489280   -1.130774    0.485880
H      2.055757   -1.847746   -2.062732
H      3.008560   -3.112589   -1.326768
H     -1.745653    0.773907    3.546167
H      4.385541   -2.567968    2.424488
