46
Conformer 41, Energy = 122.6278 kcal/mol
C     -2.988187    0.753720   -1.426640
C     -2.925549    2.107342   -1.764469
C     -2.087133    2.961652   -1.052157
C     -1.297028    2.466026   -0.011464
C     -1.422813    1.119042    0.358515
C     -2.251053    0.243060   -0.351211
N     -0.409173    3.324853    0.671769
N      0.809428    3.373030    0.342018
C      1.296394    2.539559   -0.687770
C      1.202600    2.930826   -2.025078
C      1.911670    1.316546   -0.366978
C      2.306965    0.415124   -1.357134
C      1.642908    2.078240   -3.029676
C      2.179683    0.833699   -2.692462
N     -2.317240   -1.123146   -0.052683
N      2.906266   -0.814618   -1.129212
C      3.154571   -1.458384    0.177672
C      1.901482   -1.801422    0.995447
S      0.653181   -2.762951    0.066795
C     -2.676773   -1.505487    1.335904
C     -1.468701   -1.971094    2.159596
C      4.140470   -0.663982    1.036597
O      5.350662   -0.504479    0.456355
O      3.934322   -0.209811    2.152822
C     -3.763015   -2.587374    1.299578
O     -4.314884   -3.016960    0.295425
O     -4.150139   -3.016660    2.518198
S     -0.562471   -3.461559    1.577910
H     -3.630096    0.098449   -2.011029
H     -3.517544    2.488961   -2.591907
H     -2.021688    4.011486   -1.324214
H     -0.805524    0.756837    1.172082
H      0.767904    3.893351   -2.277752
H      2.022903    1.089247    0.686407
H      1.564506    2.373000   -4.072187
H      2.519504    0.182935   -3.495974
H     -2.908846   -1.631612   -0.716402
H      2.659791   -1.494672   -1.846205
H      3.666961   -2.407950   -0.032103
H      2.207659   -2.386876    1.870890
H      1.413750   -0.898636    1.370956
H     -3.145775   -0.649613    1.841002
H     -1.805468   -2.217504    3.173396
H     -0.746026   -1.160911    2.285811
H      5.846626    0.071211    1.073429
H     -4.845083   -3.682496    2.325101
