46
Conformer 19, Energy = 116.6403 kcal/mol
C     -4.119427    1.519029    1.163953
C     -4.046818    2.828752    0.670964
C     -2.934485    3.244862   -0.060992
C     -1.890430    2.356367   -0.282819
C     -1.983975    1.047871    0.230284
C     -3.098939    0.579938    0.918681
N     -0.690533    2.775793   -0.883712
N     -0.447076    2.089540   -1.904012
C      0.941025    1.838694   -1.975045
C      1.875221    2.822369   -2.292754
C      1.390525    0.554436   -1.643571
C      2.745156    0.259090   -1.527196
C      3.241482    2.531449   -2.242283
C      3.670391    1.258577   -1.851130
N     -3.179167   -0.686476    1.516926
N      3.171287   -1.006571   -1.079197
C      2.736785   -1.340415    0.315807
C      2.692053   -2.861513    0.519240
S      1.210799   -3.663966   -0.213562
C     -2.516352   -1.912826    0.955199
C     -0.982498   -1.879911    0.978620
C      3.752177   -0.779037    1.312972
O      3.227923   -0.543619    2.530709
O      4.935298   -0.555433    1.092590
C     -3.070228   -2.252935   -0.431452
O     -2.447563   -2.619110   -1.415216
O     -4.423282   -2.167558   -0.485482
S     -0.221961   -3.525984    1.268932
H     -4.986780    1.240571    1.762293
H     -4.858628    3.528675    0.878501
H     -2.866491    4.265386   -0.422391
H     -1.112120    0.427864    0.085659
H      1.540558    3.819366   -2.560489
H      0.656698   -0.223759   -1.449470
H      3.977858    3.300968   -2.489912
H      4.735400    1.066195   -1.781394
H     -4.170524   -0.915257    1.664439
H      4.187036   -1.076741   -1.142742
H      1.766939   -0.889235    0.552836
H      3.565586   -3.322452    0.037353
H      2.745661   -3.136957    1.580818
H     -2.846634   -2.731311    1.608125
H     -0.619501   -1.229413    1.781104
H     -0.595585   -1.510461    0.028559
H      3.965771   -0.145138    3.038352
H     -4.622634   -2.379715   -1.429126
