46
Conformer  4, Energy = 110.3417 kcal/mol
C      3.907278    1.415827   -1.649908
C      3.662805    2.786174   -1.802699
C      2.359581    3.282184   -1.721226
C      1.299418    2.408608   -1.489692
C      1.556893    1.035694   -1.365732
C      2.852482    0.525012   -1.428060
N     -0.030636    2.852906   -1.405506
N     -0.362536    2.941937   -0.200473
C     -1.706343    2.555143   -0.059159
C     -2.768190    3.408221   -0.349679
C     -1.970090    1.249048    0.384348
C     -3.267269    0.740502    0.454529
C     -4.076181    2.948437   -0.213019
C     -4.317853    1.628916    0.189999
N      3.089488   -0.847782   -1.203597
N     -3.559006   -0.551376    0.886635
C     -2.559663   -1.651089    0.765877
C     -2.074178   -2.019555    2.171765
S     -0.612536   -3.125291    2.243390
C      2.912999   -1.240488    0.236914
C      1.587836   -2.003660    0.427821
C     -3.251334   -2.858728    0.122053
O     -2.406433   -3.702766   -0.502723
O     -4.455265   -3.077494    0.119608
C      4.092429   -2.138453    0.660228
O      4.158049   -2.879843    1.626532
O      5.166483   -2.023687   -0.163611
S      0.985885   -1.834701    2.154385
H      4.931899    1.055658   -1.699372
H      4.491392    3.468063   -1.977133
H      2.169380    4.345701   -1.831519
H      0.714919    0.366050   -1.226868
H     -2.573145    4.423434   -0.681716
H     -1.116216    0.637715    0.657983
H     -4.910835    3.611588   -0.424848
H     -5.348993    1.296751    0.289273
H      4.054145   -1.075379   -1.472694
H     -4.498647   -0.862558    0.625365
H     -1.740530   -1.362595    0.099315
H     -1.850970   -1.120453    2.758275
H     -2.876287   -2.539177    2.710643
H      2.970951   -0.346450    0.872789
H      0.805640   -1.617410   -0.230257
H      1.721883   -3.067357    0.200921
H     -2.984990   -4.406332   -0.866723
H      5.826292   -2.630947    0.236535
