46
Conformer 48, Energy = 136.6240 kcal/mol
C      2.052956    0.388263   -3.726952
C      2.010603    1.776042   -3.874692
C      1.865029    2.585158   -2.752171
C      1.734002    2.015298   -1.483781
C      1.805436    0.619285   -1.355974
C      1.975990   -0.219999   -2.464647
N      1.643318    2.864322   -0.363066
N      0.690158    2.784132    0.451282
C     -0.555866    2.211799    0.112744
C     -1.259396    2.567268   -1.044265
C     -1.187588    1.380533    1.060756
C     -2.471743    0.869993    0.850438
C     -2.532453    2.060875   -1.281873
C     -3.130448    1.232525   -0.334127
N      1.981004   -1.618124   -2.424141
N     -3.249419    0.221911    1.812798
C     -2.726286   -0.729551    2.833954
C     -1.946230   -1.914689    2.246124
S     -0.123576   -1.851627    2.377533
C      1.966511   -2.400188   -1.158758
C      0.579618   -2.350727   -0.501824
C     -2.136482   -0.045189    4.066957
O     -1.797232   -0.909715    5.046940
O     -2.043705    1.157565    4.262190
C      3.171723   -2.051826   -0.274793
O      3.182564   -1.539138    0.831097
O      4.346994   -2.357863   -0.880408
S      0.449835   -3.314796    1.044830
H      2.145798   -0.227359   -4.619455
H      2.090151    2.221216   -4.862662
H      1.846886    3.666447   -2.860307
H      1.742959    0.230082   -0.345827
H     -0.825656    3.264852   -1.754379
H     -0.663673    1.201680    1.994625
H     -3.072842    2.338744   -2.182287
H     -4.145153    0.879419   -0.509802
H      2.682099   -1.985787   -3.068477
H     -3.761628    0.961288    2.306061
H     -3.655794   -1.170601    3.224853
H     -2.244642   -2.821191    2.786487
H     -2.228839   -2.060727    1.197359
H      2.123993   -3.449539   -1.447718
H      0.244027   -1.327434   -0.324333
H     -0.152036   -2.778165   -1.198473
H     -1.440539   -0.336724    5.759317
H      5.019571   -2.037738   -0.242184
