46
Conformer 13, Energy = 113.0064 kcal/mol
C      3.965099    1.826925   -1.369990
C      3.489260    3.091452   -1.740643
C      2.197146    3.481930   -1.393331
C      1.392437    2.615588   -0.658482
C      1.902035    1.366845   -0.265674
C      3.162953    0.923241   -0.661549
N      0.078288    2.946800   -0.284159
N     -0.708554    2.558933   -1.177956
C     -1.936888    2.146150   -0.627456
C     -3.139719    2.634955   -1.132189
C     -1.973140    1.133206    0.344994
C     -3.167955    0.583759    0.802054
C     -4.351823    2.129095   -0.659542
C     -4.362795    1.107373    0.296977
N      3.694818   -0.306657   -0.273322
N     -3.174774   -0.481674    1.718230
C     -2.704452   -1.821927    1.233835
C     -1.191757   -1.980812    0.988261
S     -0.198412   -1.621407    2.488727
C      2.797646   -1.452959    0.066965
C      2.754500   -1.606089    1.592683
C     -3.487749   -2.295218    0.005087
O     -4.829825   -2.225531    0.180407
O     -3.032832   -2.738966   -1.037207
C      3.351601   -2.738713   -0.576805
O      2.849747   -3.850864   -0.551901
O      4.518220   -2.551649   -1.244384
S      1.491957   -2.768870    2.244502
H      4.980026    1.550751   -1.647410
H      4.128933    3.767772   -2.301654
H      1.817065    4.454816   -1.689888
H      1.267965    0.743537    0.354388
H     -3.130727    3.404953   -1.898423
H     -1.035002    0.783120    0.757042
H     -5.289510    2.518115   -1.048040
H     -5.319979    0.716623    0.633764
H      4.450069   -0.618487   -0.891863
H     -4.122062   -0.599736    2.082217
H     -2.969817   -2.538365    2.024614
H     -0.838820   -1.357609    0.162212
H     -0.998507   -3.020819    0.698520
H      1.804235   -1.305702   -0.371829
H      3.722902   -1.983811    1.943579
H      2.613522   -0.637237    2.085074
H     -5.192788   -2.538991   -0.675141
H      4.727464   -3.443849   -1.596324
