46
Conformer 39, Energy = 121.0775 kcal/mol
C      1.859076    0.547227   -2.543640
C      1.241473    1.659882   -3.116503
C      0.846154    2.721860   -2.310754
C      1.062546    2.673848   -0.933692
C      1.710001    1.561300   -0.379048
C      2.077238    0.463151   -1.162960
N      0.717942    3.764495   -0.115203
N     -0.435075    3.848935    0.381508
C     -1.410792    2.868097    0.116017
C     -2.382568    3.101839   -0.862879
C     -1.485458    1.697187    0.879855
C     -2.501983    0.761188    0.664412
C     -3.391811    2.168231   -1.097852
C     -3.445889    0.998309   -0.340261
N      2.740771   -0.651646   -0.652750
N     -2.506978   -0.437532    1.405140
C     -1.793017   -1.557637    0.704166
C     -1.132769   -2.422182    1.785523
S     -0.263591   -3.946494    1.257777
C      2.500151   -1.086897    0.743406
C      2.454766   -2.616487    0.855900
C     -2.810892   -2.382071   -0.086655
O     -2.347847   -2.842379   -1.262744
O     -3.961775   -2.612351    0.261175
C      3.606127   -0.611977    1.677841
O      3.443659   -0.246945    2.833357
O      4.850190   -0.694888    1.160976
S      1.094573   -3.321333   -0.148769
H      2.170610   -0.264511   -3.194756
H      1.077980    1.700160   -4.188356
H      0.375890    3.594557   -2.751922
H      1.923685    1.586645    0.684457
H     -2.348187    4.020125   -1.441198
H     -0.753142    1.526815    1.664186
H     -4.138145    2.354853   -1.866114
H     -4.240125    0.281539   -0.535009
H      2.801514   -1.425650   -1.311550
H     -3.480687   -0.730095    1.550213
H     -1.036224   -1.153538    0.019312
H     -0.421480   -1.818124    2.357487
H     -1.893627   -2.749359    2.503558
H      1.554390   -0.676505    1.119696
H      2.345526   -2.916927    1.900665
H      3.390914   -3.058476    0.498037
H     -3.092532   -3.349359   -1.648403
H      5.429416   -0.326879    1.855324
