46
Conformer 29, Energy = 119.1708 kcal/mol
C      3.710529    1.201037   -2.136143
C      3.179660    2.339974   -2.747070
C      2.056521    2.957370   -2.196858
C      1.484540    2.472956   -1.015170
C      2.088577    1.366886   -0.381765
C      3.149506    0.664153   -0.964842
N      0.235605    3.025074   -0.621226
N     -0.162800    2.594905    0.491734
C     -1.523312    2.236096    0.389712
C     -2.537020    3.160192    0.117496
C     -1.840881    0.871002    0.499245
C     -3.131153    0.395472    0.243294
C     -3.849572    2.719573   -0.064798
C     -4.136744    1.351885   -0.002867
N      3.732676   -0.474563   -0.428948
N     -3.481619   -0.937797    0.304995
C     -2.560148   -2.082626    0.514424
C     -1.624162   -2.314300   -0.690500
S     -0.351052   -3.602556   -0.345870
C      3.272399   -1.240332    0.749351
C      1.834298   -1.784503    0.688927
C     -3.422730   -3.342463    0.725200
O     -4.590954   -3.314179    0.024249
O     -3.143688   -4.323166    1.403225
C      3.480556   -0.463568    2.054019
O      2.610748   -0.098159    2.835999
O      4.787938   -0.207509    2.318069
S      1.440056   -2.709644   -0.840868
H      4.582312    0.724185   -2.591558
H      3.624265    2.723956   -3.661597
H      1.604502    3.806984   -2.703079
H      1.661800    1.035028    0.558967
H     -2.298791    4.216066    0.033117
H     -1.024177    0.185380    0.735202
H     -4.643786    3.433824   -0.282450
H     -5.161425    1.031865   -0.161369
H      4.129260   -1.078494   -1.147612
H     -4.330142   -1.199241   -0.200243
H     -2.000066   -1.910732    1.445423
H     -1.121920   -1.388815   -0.989059
H     -2.199947   -2.654420   -1.560683
H      3.935741   -2.112239    0.828952
H      1.095616   -0.989196    0.793800
H      1.687733   -2.458985    1.542934
H     -5.006200   -4.181355    0.238724
H      4.757451    0.354982    3.126485
