46
Conformer  1, Energy = 110.0410 kcal/mol
C     -4.377912    1.540006   -0.205891
C     -4.080647    2.831633   -0.656119
C     -2.768377    3.295674   -0.620717
C     -1.760366    2.474571   -0.117438
C     -2.087339    1.199699    0.372298
C     -3.381506    0.685765    0.286408
N     -0.406562    2.852621   -0.099279
N      0.035984    2.889279   -1.270622
C      1.384712    2.499189   -1.267387
C      2.426486    3.423435   -1.206578
C      1.684537    1.133033   -1.340835
C      3.000090    0.672842   -1.319502
C      3.750597    2.978760   -1.191802
C      4.034328    1.608871   -1.236212
N     -3.743604   -0.567439    0.753365
N      3.249918   -0.710327   -1.274200
C      3.201682   -1.277937    0.109983
C      1.788748   -1.696791    0.554265
S      0.953271   -2.884832   -0.567564
C     -2.784014   -1.616126    1.178102
C     -1.992461   -2.187659   -0.011994
C      4.171391   -2.460934    0.239268
O      5.131353   -2.469968   -0.718968
O      4.187679   -3.303650    1.122466
C     -3.601002   -2.742035    1.823275
O     -4.630064   -3.228076    1.373965
O     -3.091550   -3.182810    2.991518
S     -0.719088   -3.404779    0.515807
H     -5.411779    1.202640   -0.243135
H     -4.873260    3.467974   -1.040661
H     -2.526199    4.287231   -0.991480
H     -1.279030    0.608333    0.789959
H      2.204125    4.485612   -1.161128
H      0.866473    0.421868   -1.420920
H      4.562770    3.699212   -1.136016
H      5.070494    1.282106   -1.203629
H     -4.599232   -0.946470    0.346058
H      4.177769   -0.915769   -1.659807
H      3.587741   -0.532931    0.820276
H      1.147240   -0.814733    0.643062
H      1.846826   -2.156869    1.547460
H     -2.117595   -1.197454    1.942046
H     -1.505924   -1.384614   -0.572501
H     -2.665809   -2.700423   -0.708552
H      5.654253   -3.275712   -0.517999
H     -3.715148   -3.882016    3.280325
