46
Conformer 16, Energy = 114.7742 kcal/mol
C      3.922550    1.771080   -1.065386
C      3.402974    2.953124   -1.605786
C      2.101561    3.356382   -1.296249
C      1.314106    2.576999   -0.448729
C      1.855914    1.405904    0.098996
C      3.155319    0.991472   -0.196311
N     -0.007344    2.921683   -0.112144
N     -0.777616    2.584681   -1.038655
C     -2.039468    2.182056   -0.550777
C     -3.192897    2.492540   -1.269411
C     -2.152245    1.321574    0.554080
C     -3.355522    0.703943    0.899735
C     -4.423941    1.949652   -0.893434
C     -4.500147    1.050339    0.175793
N      3.630500   -0.227656    0.316028
N     -3.403526   -0.289797    1.900069
C     -2.728627   -1.601457    1.574735
C     -1.199907   -1.488057    1.483197
S     -0.314094   -3.089405    1.562140
C      3.306838   -1.424158   -0.525116
C      1.922011   -2.023833   -0.218461
C     -3.344639   -2.239672    0.322740
O     -4.686704   -2.402174    0.439296
O     -2.779064   -2.593052   -0.698877
C      4.421648   -2.466316   -0.368342
O      5.517924   -2.267205    0.138383
O      4.154702   -3.656642   -0.941449
S      1.657402   -2.470784    1.544005
H      4.933842    1.469922   -1.326714
H      4.012571    3.557957   -2.272371
H      1.696026    4.270771   -1.719737
H      1.250749    0.816078    0.781397
H     -3.128538    3.144261   -2.136488
H     -1.261198    1.115398    1.136974
H     -5.319970    2.200050   -1.455804
H     -5.462430    0.607317    0.420244
H      4.647968   -0.185882    0.435687
H     -4.380461   -0.491802    2.123900
H     -2.965138   -2.272805    2.410980
H     -0.831452   -0.869069    2.308488
H     -0.912274   -1.028782    0.534166
H      3.340922   -1.137997   -1.585832
H      1.152465   -1.301566   -0.505499
H      1.757769   -2.924695   -0.819371
H     -4.943656   -2.795788   -0.421727
H      4.955100   -4.194588   -0.759393
