46
Conformer  6, Energy = 110.9759 kcal/mol
C     -4.257270    1.691681    0.851028
C     -4.062030    3.050014    0.568281
C     -2.837393    3.494383    0.069454
C     -1.811820    2.581663   -0.157128
C     -2.038058    1.221233    0.120107
C     -3.255466    0.745576    0.606419
N     -0.524111    3.015198   -0.528244
N     -0.176475    2.484608   -1.607852
C      1.211614    2.250852   -1.599455
C      2.075585    2.954142   -2.432318
C      1.729579    1.229743   -0.783508
C      3.076169    0.872756   -0.791776
C      3.438346    2.656781   -2.419910
C      3.930256    1.633409   -1.597848
N     -3.447219   -0.580489    0.993540
N      3.597689   -0.113116    0.035803
C      2.771667   -1.237643    0.557206
C      2.383988   -2.233800   -0.548398
S      0.604297   -2.253801   -1.014875
C     -2.663127   -1.683447    0.360897
C     -1.464793   -2.047298    1.258651
C      3.594580   -2.019084    1.587861
O      4.923692   -2.032938    1.323390
O      3.156835   -2.642447    2.542368
C     -3.597525   -2.893703    0.211699
O     -4.606003   -3.106091    0.871761
O     -3.249739   -3.739546   -0.777029
S     -0.290881   -3.264549    0.537338
H     -5.209257    1.379737    1.274798
H     -4.859497    3.762707    0.762699
H     -2.673497    4.551528   -0.118422
H     -1.211080    0.538862   -0.029607
H      1.689397    3.737286   -3.077804
H      1.037357    0.720512   -0.125115
H      4.121905    3.219859   -3.050241
H      4.998859    1.431240   -1.602106
H     -4.432985   -0.830388    1.101649
H      4.545849   -0.410132   -0.194540
H      1.913663   -0.842022    1.111887
H      2.929565   -2.006710   -1.471791
H      2.654381   -3.264759   -0.291230
H     -2.364035   -1.385921   -0.650960
H     -0.892274   -1.159781    1.547500
H     -1.831180   -2.490135    2.192709
H      5.304464   -2.544891    2.068767
H     -3.934019   -4.441079   -0.756686
