46
Conformer 47, Energy = 125.4755 kcal/mol
C      3.008668   -0.091680   -2.677517
C      2.855980    1.256786   -3.021280
C      1.598524    1.864805   -2.957281
C      0.484048    1.126903   -2.554291
C      0.649090   -0.232956   -2.258584
C      1.902702   -0.851595   -2.296372
N     -0.799972    1.683741   -2.381642
N     -0.770898    2.576479   -1.504298
C     -1.859417    2.486705   -0.604648
C     -2.305813    3.634969    0.048414
C     -2.386241    1.248912   -0.198854
C     -3.238153    1.118834    0.900371
C     -3.237086    3.540699    1.086377
C     -3.685966    2.288252    1.520100
N      2.006359   -2.186533   -1.879374
N     -3.578204   -0.150706    1.416551
C     -2.443832   -0.953575    2.015890
C     -1.479613   -1.500052    0.955298
S     -0.474417   -2.963559    1.419060
C      2.482084   -2.464858   -0.473256
C      2.070142   -1.434681    0.593428
C     -1.733547   -0.152513    3.111654
O     -2.509149   -0.002315    4.214008
O     -0.634077    0.373164    3.071246
C      4.004155   -2.679677   -0.450970
O      4.759660   -2.569729    0.500482
O      4.495768   -3.090775   -1.647835
S      1.293347   -2.155237    2.105090
H      3.998794   -0.537063   -2.720247
H      3.721903    1.839435   -3.325873
H      1.489421    2.918287   -3.199765
H     -0.217217   -0.818225   -1.961329
H     -1.906976    4.605157   -0.235293
H     -2.086032    0.362053   -0.742914
H     -3.580482    4.442205    1.587548
H     -4.366754    2.240416    2.366250
H      2.674825   -2.661889   -2.498538
H     -4.302763   -0.044482    2.128908
H     -2.915164   -1.814991    2.507304
H     -2.061534   -1.828939    0.086468
H     -0.793762   -0.727014    0.607389
H      2.067721   -3.451580   -0.233959
H      2.938965   -0.867906    0.945567
H      1.366830   -0.687482    0.229507
H     -1.952088    0.547360    4.805951
H      5.450171   -3.235152   -1.469771
