46
Conformer 28, Energy = 118.8975 kcal/mol
C      2.313758    1.312716   -1.783700
C      1.816749    2.610335   -1.930289
C      1.085528    3.190451   -0.899103
C      0.828094    2.466353    0.266121
C      1.364617    1.175758    0.409661
C      2.125486    0.580786   -0.601106
N      0.104180    3.042893    1.327184
N     -1.151341    2.966824    1.364488
C     -1.874887    2.363581    0.315840
C     -2.515044    3.168722   -0.627921
C     -2.049471    0.969387    0.262195
C     -2.829799    0.362087   -0.725929
C     -3.287501    2.590463   -1.629043
C     -3.433873    1.202185   -1.675151
N      2.591911   -0.736233   -0.567863
N     -2.995391   -1.009529   -0.893246
C     -2.360422   -2.066467   -0.065905
C     -0.840849   -2.121282   -0.284480
S     -0.130443   -3.724029    0.265551
C      2.644442   -1.515787    0.692450
C      2.862387   -3.009160    0.406192
C     -2.771170   -1.971006    1.404380
O     -4.113477   -2.043180    1.572476
O     -2.041856   -1.837634    2.374342
C      3.810847   -1.067992    1.574210
O      3.843879   -1.101418    2.794562
O      4.900891   -0.669303    0.878159
S      1.663104   -3.799031   -0.736786
H      2.855542    0.867295   -2.615653
H      1.992241    3.159160   -2.851423
H      0.698275    4.199692   -1.004723
H      1.153792    0.658952    1.340070
H     -2.407423    4.248584   -0.576972
H     -1.562191    0.390780    1.037873
H     -3.773646    3.214099   -2.374106
H     -4.024018    0.768548   -2.480387
H      3.467150   -0.821065   -1.087175
H     -3.969710   -1.234368   -1.095261
H     -2.778060   -3.015593   -0.429628
H     -0.335181   -1.327191    0.264717
H     -0.623814   -1.995863   -1.351141
H      1.723717   -1.392315    1.269161
H      2.876183   -3.582643    1.340675
H      3.848105   -3.155285   -0.052745
H     -4.237200   -1.926013    2.537974
H      5.535891   -0.387266    1.570423
