46
Conformer 43, Energy = 122.8613 kcal/mol
C      2.374200    0.677640   -2.035239
C      2.081433    1.832169   -2.767330
C      1.385838    2.880238   -2.167737
C      0.989239    2.790490   -0.833316
C      1.332999    1.644901   -0.104727
C      1.963387    0.543491   -0.704335
N      0.322203    3.878691   -0.232333
N     -0.920687    3.852069   -0.041320
C     -1.662715    2.677959   -0.279931
C     -2.086092    2.331016   -1.564377
C     -2.025772    1.862980    0.803676
C     -2.740500    0.677900    0.610573
C     -2.801987    1.155094   -1.772015
C     -3.114846    0.330524   -0.690588
N      2.237590   -0.575320    0.083020
N     -3.006373   -0.219430    1.669902
C     -1.840464   -1.093156    2.080144
C     -1.177918   -1.811907    0.897777
S     -0.356383   -3.413689    1.296362
C      2.467028   -1.917394   -0.500335
C      2.654475   -2.961576    0.617730
C     -0.858022   -0.276782    2.926815
O     -1.484882    0.355723    3.953447
O      0.344114   -0.126299    2.779700
C      1.404967   -2.405415   -1.496508
O      0.346363   -1.887401   -1.808689
O      1.770404   -3.556378   -2.111760
S      1.486157   -2.921533    2.045806
H      2.929120   -0.112088   -2.534617
H      2.398300    1.909847   -3.805304
H      1.157616    3.777301   -2.736819
H      1.071588    1.609451    0.950055
H     -1.834379    2.967899   -2.408254
H     -1.721429    2.168499    1.798573
H     -3.097810    0.868768   -2.775040
H     -3.662288   -0.592040   -0.865442
H      1.651037   -0.610668    0.922897
H     -3.248601    0.332323    2.495645
H     -2.263043   -1.849618    2.749084
H     -1.955019   -2.092130    0.183295
H     -0.484589   -1.152149    0.376404
H      3.403492   -1.870952   -1.068823
H      2.678571   -3.982432    0.225079
H      3.638128   -2.788337    1.069566
H     -0.763695    0.833381    4.414852
H      1.019246   -3.741662   -2.716592
