46
Conformer 18, Energy = 115.9610 kcal/mol
C      4.120270    2.219955   -0.833342
C      3.627279    3.478063   -1.204280
C      2.264855    3.654237   -1.441371
C      1.397888    2.576453   -1.289089
C      1.913897    1.319161   -0.937381
C      3.276045    1.107486   -0.727174
N      0.012781    2.695735   -1.489956
N     -0.548684    2.803684   -0.377099
C     -1.805182    2.169697   -0.369602
C     -2.739740    2.278020   -1.403975
C     -2.103834    1.355726    0.732050
C     -3.288334    0.620970    0.801054
C     -3.931724    1.556838   -1.349610
C     -4.196689    0.726449   -0.257577
N      3.795788   -0.109634   -0.283790
N     -3.548076   -0.204975    1.902345
C     -2.972420   -1.589405    1.934845
C     -1.449160   -1.734393    1.782761
S     -0.772576   -1.789671    0.074646
C      3.067282   -1.382054   -0.562785
C      2.253232   -1.786433    0.678161
C     -3.781368   -2.605389    1.121475
O     -5.067969   -2.227682    0.919739
O     -3.420059   -3.711240    0.752072
C      4.115507   -2.460827   -0.879838
O      5.324763   -2.349458   -0.723691
O      3.608593   -3.588832   -1.410802
S      0.901448   -2.973551    0.307372
H      5.183562    2.117089   -0.627870
H      4.307723    4.320844   -1.293974
H      1.875535    4.628906   -1.719173
H      1.197692    0.513189   -0.817275
H     -2.530171    2.912095   -2.261024
H     -1.387104    1.300466    1.547102
H     -4.650969    1.635432   -2.160449
H     -5.131562    0.172479   -0.239549
H      4.798752   -0.202800   -0.465762
H     -4.564904   -0.320105    1.969891
H     -3.173081   -1.900884    2.971067
H     -1.172359   -2.683274    2.258273
H     -0.932044   -0.940749    2.331966
H      2.453559   -1.270278   -1.464971
H      2.908140   -2.275058    1.409350
H      1.824005   -0.915585    1.185344
H     -5.448569   -2.981458    0.419447
H      4.387981   -4.159236   -1.578584
