46
Conformer 21, Energy = 117.0290 kcal/mol
C      3.915351    1.293642   -1.951442
C      3.331175    2.067831   -2.960580
C      2.105599    2.701022   -2.740897
C      1.467369    2.572630   -1.506588
C      2.093841    1.845515   -0.488856
C      3.301644    1.179160   -0.702018
N      0.183960    3.082938   -1.243071
N     -0.661397    2.420267   -1.885991
C     -1.784766    2.117353   -1.091916
C     -2.440888    3.046440   -0.279212
C     -2.218508    0.784104   -1.083303
C     -3.245567    0.352157   -0.239239
C     -3.478624    2.635356    0.558542
C     -3.863671    1.292113    0.589028
N      3.812973    0.334391    0.299073
N     -3.593421   -1.002112   -0.188110
C     -3.261074   -1.726624    1.071188
C     -1.746413   -1.871049    1.324943
S     -0.833528   -2.626575   -0.082573
C      3.263414   -1.065425    0.301143
C      1.746280   -1.130394    0.563643
C     -3.889966   -3.123819    1.086147
O     -4.218590   -3.605628   -0.132813
O     -4.061519   -3.813356    2.081507
C      4.060255   -1.860010    1.344396
O      5.096822   -2.470579    1.121441
O      3.609187   -1.742892    2.609735
S      1.077346   -2.838881    0.653268
H      4.850680    0.779279   -2.156516
H      3.819408    2.155597   -3.928027
H      1.632512    3.268885   -3.537135
H      1.600042    1.769747    0.476928
H     -2.128407    4.087067   -0.282846
H     -1.705500    0.071769   -1.724850
H     -3.981330    3.358607    1.195118
H     -4.674465    0.987915    1.246348
H      4.828983    0.276147    0.195565
H     -3.245509   -1.533434   -0.988252
H     -3.723491   -1.195154    1.912590
H     -1.309560   -0.884831    1.513667
H     -1.578698   -2.491285    2.212452
H      3.474756   -1.530449   -0.671676
H      1.219734   -0.630232   -0.253407
H      1.486432   -0.616316    1.495442
H     -4.599288   -4.489988    0.047188
H      4.266414   -2.230897    3.148931
