46
Conformer  9, Energy = 111.8337 kcal/mol
C      4.003476    2.021822   -0.406479
C      3.480015    3.317534   -0.358277
C      2.141610    3.540921   -0.667378
C      1.332302    2.468323   -1.031187
C      1.879754    1.176838   -1.095989
C      3.204600    0.920707   -0.743677
N     -0.029207    2.618315   -1.336331
N     -0.688271    2.759733   -0.284750
C     -1.949304    2.163147   -0.452346
C     -3.059856    2.879886   -0.889450
C     -2.075334    0.789775   -0.174796
C     -3.274182    0.103147   -0.347976
C     -4.268995    2.215381   -1.086237
C     -4.364169    0.839913   -0.843198
N      3.781429   -0.338846   -0.808973
N     -3.396751   -1.284701   -0.192083
C     -2.899389   -1.977407    1.038340
C     -1.380524   -2.098976    1.241813
S     -0.476257   -2.769137   -0.205061
C      2.993077   -1.600049   -0.818048
C      2.362682   -1.866908    0.559561
C     -3.555720   -1.416836    2.304749
O     -4.896155   -1.277414    2.181850
O     -3.005637   -1.151550    3.363264
C      3.943943   -2.750660   -1.170952
O      3.718798   -3.682587   -1.927957
O      5.136491   -2.671550   -0.532434
S      1.307519   -3.366453    0.639859
H      5.054074    1.877958   -0.164051
H      4.120831    4.150839   -0.075654
H      1.725419    4.543580   -0.615690
H      1.221188    0.373113   -1.409161
H     -2.970217    3.938919   -1.112340
H     -1.165364    0.272538    0.103382
H     -5.133423    2.762069   -1.449514
H     -5.313907    0.345984   -1.040784
H      4.662361   -0.437177   -0.306467
H     -4.380027   -1.532717   -0.293526
H     -3.276635   -3.008636    0.966585
H     -0.927079   -1.150154    1.543151
H     -1.213060   -2.787706    2.080766
H      2.246581   -1.555038   -1.617323
H      3.155504   -2.007654    1.306027
H      1.774487   -1.010779    0.910679
H     -5.175693   -0.897003    3.041129
H      5.629018   -3.440506   -0.894096
