46
Conformer 32, Energy = 120.0912 kcal/mol
C      3.133572    2.164121   -0.846999
C      2.606681    3.385469   -1.270386
C      1.452472    3.412061   -2.054550
C      0.813526    2.222283   -2.417319
C      1.378314    1.004116   -2.021939
C      2.527641    0.963876   -1.227919
N     -0.348120    2.267307   -3.215274
N     -1.483696    2.058471   -2.709014
C     -1.610271    1.779410   -1.333238
C     -1.689610    2.814428   -0.399182
C     -1.700886    0.446558   -0.896623
C     -1.828229    0.128149    0.458146
C     -1.785434    2.521193    0.956887
C     -1.831336    1.189636    1.376516
N      2.982684   -0.271207   -0.731586
N     -1.810764   -1.176635    0.963824
C     -2.162666   -2.335865    0.105850
C     -1.946386   -3.661910    0.855649
S     -0.239593   -4.343389    0.879350
C      2.262215   -0.694083    0.520266
C      1.719725   -2.111403    0.290084
C     -3.644430   -2.298289   -0.277064
O     -4.458642   -1.925746    0.737660
O     -4.115815   -2.612673   -1.358798
C      3.262372   -0.650915    1.680471
O      4.473064   -0.802830    1.581166
O      2.710976   -0.374844    2.878144
S      0.905545   -2.873022    1.742015
H      4.019476    2.158665   -0.217081
H      3.089954    4.315419   -0.982819
H      1.039978    4.363061   -2.380932
H      0.908201    0.074666   -2.329976
H     -1.647309    3.847205   -0.733323
H     -1.645458   -0.326171   -1.656511
H     -1.811173    3.323972    1.688640
H     -1.873915    0.983730    2.444200
H      3.987474   -0.223058   -0.530218
H     -2.320595   -1.216558    1.848143
H     -1.572658   -2.332398   -0.817077
H     -2.288142   -3.585909    1.895058
H     -2.553993   -4.449658    0.394000
H      1.440855   -0.003132    0.751542
H      1.006015   -2.077800   -0.540984
H      2.536359   -2.779982   -0.007497
H     -5.351915   -1.909283    0.332425
H      3.463939   -0.387039    3.505242
