46
Conformer  5, Energy = 110.9723 kcal/mol
C      4.071375    1.938133   -0.912810
C      3.586309    3.215090   -1.218188
C      2.229141    3.402319   -1.466338
C      1.363877    2.309639   -1.428205
C      1.879140    1.029461   -1.168014
C      3.221792    0.825141   -0.848552
N     -0.025310    2.428054   -1.609279
N     -0.525040    3.055790   -0.647231
C     -1.808158    2.550818   -0.382180
C     -2.961122    3.143747   -0.894138
C     -1.925602    1.421877    0.438453
C     -3.166121    0.855945    0.727937
C     -4.212551    2.592983   -0.607355
C     -4.312362    1.447388    0.190698
N      3.766388   -0.418789   -0.579064
N     -3.225452   -0.345470    1.456084
C     -3.072202   -1.567407    0.605066
C     -1.602674   -1.969489    0.381016
S     -0.655020   -2.296532    1.917612
C      2.980237   -1.657556   -0.353666
C      2.186541   -1.606976    0.964001
C     -3.889558   -2.714066    1.214234
O     -3.693590   -3.909434    0.622990
O     -4.730572   -2.600661    2.096206
C      3.960738   -2.839206   -0.314984
O      3.791353   -3.948509   -0.795785
O      5.108183   -2.559111    0.351545
S      1.103530   -3.076082    1.182023
H      5.136207    1.819128   -0.723671
H      4.267894    4.060864   -1.252254
H      1.841418    4.394486   -1.677837
H      1.178397    0.201065   -1.186295
H     -2.881468    4.026864   -1.521416
H     -1.023755    0.985762    0.860407
H     -5.111259    3.050935   -1.012902
H     -5.293762    1.022891    0.386578
H      4.640086   -0.407107   -0.051744
H     -4.117570   -0.411101    1.957082
H     -3.539004   -1.385774   -0.373622
H     -1.078804   -1.184596   -0.172708
H     -1.563935   -2.874581   -0.235349
H      2.322888   -1.817106   -1.217061
H      2.868045   -1.571513    1.821624
H      1.570920   -0.704441    1.007955
H     -4.281799   -4.520722    1.116623
H      5.622230   -3.392150    0.281483
