46
Conformer 15, Energy = 114.6495 kcal/mol
C     -4.530419    1.249877    0.554915
C     -4.473061    2.328451   -0.333170
C     -3.238212    2.847449   -0.727823
C     -2.054274    2.324759   -0.207332
C     -2.141220    1.276036    0.723601
C     -3.359697    0.694155    1.079897
N     -0.819078    2.741036   -0.749571
N      0.107737    2.704806    0.090503
C      1.320854    2.416203   -0.561381
C      1.994399    3.356707   -1.339334
C      1.848187    1.119165   -0.436673
C      3.015322    0.728004   -1.098061
C      3.150889    2.986500   -2.022321
C      3.638445    1.678230   -1.918470
N     -3.412945   -0.453826    1.896948
N      3.492597   -0.586165   -1.094054
C      3.305663   -1.449677    0.109461
C      2.080735   -2.362608   -0.085158
S      1.413019   -2.957666    1.521273
C     -2.851338   -1.723785    1.307540
C     -1.316741   -1.714480    1.237510
C      4.577572   -2.296404    0.279862
O      4.654762   -2.955583    1.450381
O      5.498816   -2.368398   -0.523284
C     -3.563467   -2.073489   -0.005583
O     -4.766757   -2.275357   -0.114574
O     -2.781344   -2.102443   -1.100305
S     -0.561760   -3.378876    1.105952
H     -5.502288    0.834402    0.811186
H     -5.391130    2.741646   -0.743376
H     -3.196681    3.648991   -1.460602
H     -1.223002    0.900598    1.160177
H      1.598245    4.363326   -1.436020
H      1.289046    0.411846    0.166096
H      3.663438    3.707291   -2.654061
H      4.522904    1.407257   -2.491206
H     -4.384206   -0.629844    2.163178
H      4.453551   -0.652920   -1.442584
H      3.227915   -0.813329    1.000222
H      2.337091   -3.237872   -0.692419
H      1.285713   -1.820446   -0.606343
H     -3.137152   -2.517627    2.011150
H     -0.960733   -1.146375    0.373881
H     -0.924446   -1.248808    2.148718
H      5.516227   -3.422926    1.418108
H     -3.403177   -2.277832   -1.837885
