46
Conformer 35, Energy = 120.5086 kcal/mol
C     -3.552434    1.310879   -0.440765
C     -3.442075    2.422147   -1.278886
C     -2.503930    2.423611   -2.309102
C     -1.680293    1.313419   -2.515471
C     -1.840666    0.185371   -1.698195
C     -2.732482    0.190590   -0.621326
N     -0.737258    1.327588   -3.565295
N      0.464137    1.638579   -3.333691
C      0.905108    1.799321   -2.003776
C      0.907605    3.056894   -1.399001
C      1.364170    0.686211   -1.280846
C      1.762522    0.791111    0.054944
C      1.288602    3.185205   -0.066700
C      1.685452    2.056004    0.655184
N     -2.851298   -0.914893    0.241157
N      2.078725   -0.308186    0.859563
C      2.519923   -1.585119    0.257779
C      2.698103   -2.670439    1.328300
S      1.208606   -3.173554    2.274625
C     -1.584767   -1.317225    0.949158
C     -1.647370   -2.830551    1.210999
C      3.888680   -1.421851   -0.406131
O      3.956199   -1.991464   -1.627838
O      4.869661   -0.872618    0.072887
C     -1.505872   -0.583821    2.300414
O     -0.516574   -0.342460    2.970857
O     -2.728931   -0.234792    2.781874
S     -0.123024   -3.787544    0.839622
H     -4.282329    1.333726    0.364682
H     -4.082234    3.286513   -1.124033
H     -2.408267    3.290935   -2.956699
H     -1.243441   -0.698030   -1.903847
H      0.578983    3.927034   -1.959842
H      1.354237   -0.269953   -1.794020
H      1.257529    4.156643    0.418964
H      1.937029    2.173041    1.707673
H     -3.557876   -0.722898    0.958651
H      2.664051   -0.032855    1.648871
H      1.797514   -1.926555   -0.490108
H      3.429332   -2.337406    2.075440
H      3.118646   -3.578679    0.879613
H     -0.707527   -1.044868    0.357479
H     -1.944424   -3.057012    2.241684
H     -2.412012   -3.285884    0.570424
H      4.860601   -1.779317   -1.943750
H     -2.510332    0.213149    3.627449
