46
Conformer 38, Energy = 120.9541 kcal/mol
C     -3.640758    0.824190   -1.726698
C     -3.540644    2.200638   -1.943045
C     -2.730932    2.971305   -1.116016
C     -2.001757    2.368088   -0.090024
C     -2.133273    0.984735    0.122249
C     -2.959590    0.187777   -0.676434
N     -1.233182    3.172380    0.775892
N      0.023327    3.186556    0.715347
C      0.715452    2.444070   -0.261106
C      0.774533    2.868366   -1.590579
C      1.435220    1.301417    0.127819
C      2.183047    0.556645   -0.789403
C      1.474369    2.119206   -2.530276
C      2.151686    0.964733   -2.131187
N     -3.082899   -1.196288   -0.580584
N      2.840180   -0.629381   -0.477195
C      3.318695   -0.945810    0.891887
C      2.313535   -1.805669    1.673683
S      1.790951   -3.321855    0.772746
C     -2.464901   -2.047998    0.467996
C     -0.945651   -2.154887    0.279751
C      4.672051   -1.669067    0.842685
O      5.209213   -1.735845   -0.399834
O      5.278534   -2.136280    1.794499
C     -2.966536   -1.668854    1.865267
O     -4.128872   -1.752636    2.240997
O     -2.036466   -1.169077    2.702545
S     -0.193971   -3.487924    1.292229
H     -4.263690    0.238207   -2.399952
H     -4.093219    2.665265   -2.755028
H     -2.660870    4.044685   -1.268769
H     -1.573075    0.571209    0.950600
H      0.255472    3.772952   -1.893950
H      1.381643    1.011145    1.171361
H      1.489911    2.426496   -3.572326
H      2.673217    0.382218   -2.887979
H     -4.039701   -1.490038   -0.778694
H      3.553105   -0.884492   -1.166655
H      3.522895   -0.014917    1.436233
H      1.431204   -1.200730    1.899890
H      2.739133   -2.123166    2.631815
H     -2.866230   -3.057349    0.297964
H     -0.725734   -2.369843   -0.772464
H     -0.449188   -1.218461    0.536935
H      6.049571   -2.224707   -0.267311
H     -2.545804   -0.957008    3.514086
