46
Conformer 30, Energy = 119.2381 kcal/mol
C     -2.709579    0.701392   -1.651535
C     -2.625912    2.088441   -1.791648
C     -2.000458    2.843916   -0.806039
C     -1.433267    2.213699    0.303537
C     -1.553904    0.821071    0.443496
C     -2.207369    0.043409   -0.517555
N     -0.814375    2.974234    1.314268
N      0.412657    3.246858    1.250036
C      1.198725    2.786482    0.174570
C      1.457516    3.627552   -0.908469
C      1.815785    1.524481    0.229122
C      2.637591    1.058763   -0.801797
C      2.299294    3.205506   -1.931165
C      2.887931    1.939696   -1.866815
N     -2.276086   -1.352972   -0.492349
N      3.319931   -0.154637   -0.784387
C      2.910546   -1.350263   -0.001032
C      1.493311   -1.820201   -0.364849
S      1.205407   -3.554505    0.165364
C     -2.027788   -2.121170    0.752628
C     -1.854014   -3.615888    0.443389
C      3.108321   -1.163866    1.505149
O      4.406187   -1.008968    1.852773
O      2.241680   -1.145761    2.366930
C     -3.210031   -2.014192    1.717167
O     -3.152643   -2.072182    2.935606
O     -4.411057   -1.915348    1.100737
S     -0.553070   -4.038231   -0.780593
H     -3.178675    0.126880   -2.447736
H     -3.041293    2.573091   -2.670832
H     -1.936345    3.923855   -0.904140
H     -1.111709    0.376693    1.329159
H      1.011649    4.617498   -0.941419
H      1.625477    0.932807    1.116171
H      2.512117    3.862734   -2.769780
H      3.561169    1.645376   -2.669392
H     -3.131771   -1.674281   -0.948496
H      3.668336   -0.415296   -1.703912
H      3.611505   -2.145704   -0.290658
H      1.360426   -1.771702   -1.451434
H      0.741142   -1.182653    0.102097
H     -1.138271   -1.753631    1.271414
H     -1.660774   -4.181490    1.362673
H     -2.788745   -4.017084    0.032293
H      4.380466   -0.841107    2.817163
H     -5.050029   -1.823302    1.839259
