46
Conformer 12, Energy = 112.9996 kcal/mol
C      3.943794    1.882734   -1.374228
C      3.346933    3.016804   -1.938050
C      1.959323    3.113712   -2.002615
C      1.174101    2.079887   -1.497676
C      1.790680    0.932440   -0.972472
C      3.178193    0.805223   -0.905665
N     -0.228668    2.146685   -1.480601
N     -0.599159    2.740194   -0.441226
C     -1.872175    2.279314   -0.071449
C     -3.041018    2.865956   -0.555141
C     -1.960334    1.197487    0.815160
C     -3.190477    0.658509    1.186577
C     -4.282128    2.355378   -0.175057
C     -4.353769    1.252716    0.682902
N      3.825247   -0.248921   -0.260103
N     -3.250204   -0.501133    1.984110
C     -3.037322   -1.801659    1.265196
C     -1.590088   -2.078200    0.817879
S     -0.442372   -2.276568    2.237055
C      3.173448   -1.580373   -0.090658
C      2.395275   -1.623250    1.237093
C     -4.057995   -1.985677    0.132193
O     -3.533881   -2.241451   -1.081617
O     -5.273381   -1.905982    0.260482
C      4.271382   -2.667591   -0.104263
O      4.170639   -3.839124    0.219675
O      5.461352   -2.216358   -0.580708
S      1.239096   -3.049526    1.333370
H      5.028676    1.851226   -1.297700
H      3.967041    3.831493   -2.302521
H      1.488218    4.000860   -2.415013
H      1.136956    0.156504   -0.589583
H     -2.980134    3.712474   -1.232850
H     -1.041837    0.779238    1.217622
H     -5.195021    2.806668   -0.555139
H     -5.332531    0.856482    0.945495
H      4.786704   -0.370241   -0.594541
H     -4.170246   -0.539926    2.428972
H     -3.300367   -2.592848    1.982065
H     -1.208850   -1.304577    0.146460
H     -1.567919   -3.024803    0.265083
H      2.531834   -1.783516   -0.957277
H      3.088887   -1.706724    2.081804
H      1.827249   -0.700319    1.384175
H     -4.313200   -2.273425   -1.676961
H      6.038044   -3.009795   -0.541287
