46
Conformer 37, Energy = 120.9392 kcal/mol
C      4.006251    1.995845   -0.449085
C      3.616198    2.864485   -1.474792
C      2.286810    2.896895   -1.900289
C      1.337602    2.087650   -1.279584
C      1.743443    1.243483   -0.233214
C      3.072126    1.164835    0.178220
N      0.019707    2.012450   -1.767428
N     -0.790164    2.376038   -0.886872
C     -1.995462    1.659462   -1.006328
C     -3.202477    2.318724   -1.229125
C     -2.010014    0.274795   -0.772457
C     -3.197234   -0.452337   -0.721037
C     -4.400218    1.601255   -1.223897
C     -4.396444    0.226609   -0.961061
N      3.468548    0.203493    1.130813
N     -3.186458   -1.810441   -0.341299
C     -3.046996   -2.072282    1.133260
C     -1.638914   -1.835242    1.711970
S     -0.415046   -3.064989    1.109787
C      3.621548   -1.200385    0.613077
C      2.301877   -1.940951    0.323561
C     -4.150729   -1.361200    1.930653
O     -3.720352   -0.530495    2.898716
O     -5.352853   -1.488597    1.733370
C      4.610016   -1.254744   -0.561519
O      5.761320   -0.837862   -0.530488
O      4.128287   -1.792808   -1.697682
S      1.361484   -2.326047    1.853304
H      5.055014    1.961342   -0.161892
H      4.355936    3.497719   -1.958098
H      1.990926    3.544053   -2.721038
H      0.997331    0.630175    0.262297
H     -3.208629    3.391994   -1.396569
H     -1.066007   -0.239130   -0.620487
H     -5.341473    2.115881   -1.399909
H     -5.346231   -0.302673   -0.924410
H      4.367380    0.490315    1.524642
H     -4.060213   -2.240121   -0.653053
H     -3.271615   -3.139045    1.276750
H     -1.669821   -1.958509    2.800905
H     -1.279232   -0.822546    1.519091
H      4.132502   -1.764673    1.406509
H      1.668603   -1.395209   -0.378763
H      2.524610   -2.910207   -0.137812
H     -4.540973   -0.126465    3.253212
H      4.860037   -1.690537   -2.342978
