46
Conformer 10, Energy = 112.2659 kcal/mol
C      4.015174    1.859223   -0.995829
C      3.503737    2.989983   -1.644466
C      2.133266    3.106725   -1.868579
C      1.274173    2.103184   -1.425551
C      1.808230    0.967208   -0.795758
C      3.180375    0.807648   -0.594426
N     -0.119004    2.179956   -1.595153
N     -0.618145    2.878351   -0.683463
C     -1.948076    2.483223   -0.445525
C     -3.003261    3.377003   -0.603189
C     -2.212152    1.197062    0.056865
C     -3.502614    0.766094    0.372355
C     -4.298324    2.985937   -0.263527
C     -4.538003    1.698798    0.234797
N      3.725080   -0.272381    0.113160
N     -3.773992   -0.479857    0.956252
C     -2.879607   -1.635753    0.644428
C     -1.733854   -1.732384    1.669364
S     -0.214206   -2.411447    0.884090
C      3.146115   -1.634964   -0.082215
C      2.808248   -2.286411    1.268070
C     -3.698717   -2.938008    0.676892
O     -5.034728   -2.731216    0.554804
O     -3.273798   -4.078823    0.762066
C      4.182006   -2.545333   -0.760874
O      3.995303   -3.684011   -1.160855
O      5.412963   -1.988219   -0.870513
S      1.286133   -1.658444    2.077370
H      5.085467    1.806971   -0.809681
H      4.175453    3.783831   -1.960222
H      1.729775    3.986116   -2.361484
H      1.108251    0.222162   -0.435290
H     -2.812261    4.381303   -0.969517
H     -1.356435    0.549990    0.209041
H     -5.121760    3.687820   -0.367339
H     -5.552858    1.431557    0.520621
H      4.739733   -0.320622   -0.023548
H     -4.750909   -0.753027    0.809327
H     -2.523001   -1.538598   -0.389414
H     -1.496570   -0.746361    2.080666
H     -2.001280   -2.379697    2.511912
H      2.288345   -1.625873   -0.762901
H      3.631127   -2.120241    1.973937
H      2.703374   -3.373573    1.174132
H     -5.411714   -3.637196    0.573729
H      5.942941   -2.677707   -1.325592
