46
Conformer  2, Energy = 70.3408 kcal/mol
C      0.501910    4.668482   -0.257595
C     -0.679414    3.925030   -0.291694
C     -0.702876    2.502806   -0.297889
C      0.552343    1.838073   -0.260032
C      1.737724    2.622817   -0.233416
C      1.716217    4.014586   -0.230988
C     -1.924878    1.738323   -0.346191
C     -3.212955    2.340057   -0.391787
C     -4.397529    1.603399   -0.451237
C     -4.340900    0.225262   -0.470485
C     -3.099991   -0.403649   -0.424747
C     -1.876985    0.318291   -0.356113
C     -0.615652   -0.332866   -0.298415
C      0.584249    0.417787   -0.250935
C      1.876133   -0.283662   -0.200797
C     -0.551448   -1.802355   -0.296893
C      2.608676   -0.765652   -1.333129
C      3.780827   -1.385205   -0.977883
S      4.014390   -1.380929    0.706804
C      2.545701   -0.536591    0.986937
C     -0.373416   -2.631225   -1.451181
C     -0.347856   -3.968142   -1.141324
S     -0.549201   -4.235978    0.526144
C     -0.683508   -2.556819    0.859104
C      2.181853   -0.186277    2.392093
C     -0.919569   -2.126494    2.269297
H      0.463167    5.754465   -0.257210
H     -1.599908    4.500929   -0.317509
H      2.717240    2.147231   -0.217908
H      2.646055    4.575970   -0.210809
H     -3.327635    3.420079   -0.385666
H     -5.356143    2.113909   -0.487162
H     -5.251544   -0.364751   -0.523083
H      2.284584   -0.670307   -2.361809
H     -0.259377   -2.261753   -2.462522
H      2.123886   -1.086768    3.012538
H      2.930961    0.485185    2.825180
H      1.214090    0.319515    2.452082
H     -0.953428   -1.037748    2.366458
H     -0.121934   -2.492652    2.924146
H     -1.874926   -2.518724    2.634046
O     -0.193870   -4.992873   -1.970343
O      4.681300   -1.942926   -1.777336
H     -3.100572   -1.492381   -0.448043
H     -0.204822   -5.778223   -1.396488
H      5.359033   -2.297245   -1.176209
