46
Conformer  0, Energy = 69.7412 kcal/mol
C     -4.406903    1.616559   -0.338216
C     -3.226477    2.353569   -0.224129
C     -1.941245    1.752055   -0.127419
C     -1.891982    0.332209   -0.150408
C     -3.110509   -0.390452   -0.268206
C     -4.348848    0.238383   -0.360654
C     -0.723443    2.516128   -0.009920
C     -0.701395    3.937925    0.021679
C      0.475783    4.680139    0.135595
C      1.686910    4.025392    0.223454
C      1.709877    2.633924    0.196022
C      0.528944    1.851048    0.080162
C      0.562608    0.431853    0.050815
C     -0.633508   -0.318287   -0.054460
C     -0.566564   -1.786813   -0.077884
C      1.850916   -0.270403    0.144086
C     -0.448205   -2.599482   -1.250765
C     -0.398685   -3.939826   -0.959370
S     -0.508597   -4.229546    0.713182
C     -0.625130   -2.555229    1.074594
C      2.494613   -0.678354    1.356241
C      3.684592   -1.323391    1.128726
S      4.041310   -1.429013   -0.531107
C      2.599810   -0.607732   -0.972815
C     -0.764408   -2.139149    2.502388
C      2.328719   -0.366507   -2.421759
H     -5.363713    2.126756   -0.409590
H     -3.342117    3.433461   -0.213304
H     -3.109516   -1.479214   -0.291080
H     -5.256575   -0.351699   -0.450173
H     -1.619757    4.514254   -0.042442
H      0.436202    5.765917    0.155607
H      2.613036    4.586004    0.313921
H     -0.394230   -2.216854   -2.261878
H      2.098172   -0.512425    2.349705
H     -0.789238   -1.051049    2.612347
H      0.076885   -2.511047    3.096913
H     -1.692712   -2.535090    2.927751
H      2.310002   -1.312207   -2.973883
H      1.365948    0.127318   -2.582615
H      3.104476    0.273777   -2.854990
O      4.519488   -1.831270    2.026586
O     -0.283727   -4.953377   -1.808278
H      2.686243    2.157195    0.269274
H      5.239323   -2.219952    1.499736
H     -0.266376   -5.745501   -1.243438
