46
Conformer  1, Energy = 69.7412 kcal/mol
C     -4.418383    1.620563    0.009136
C     -3.232439    2.355649   -0.043717
C     -1.944085    1.753047   -0.041461
C     -1.897526    0.334147    0.017457
C     -3.121721   -0.386538    0.071164
C     -4.362983    0.243315    0.067121
C     -0.720601    2.515138   -0.095877
C     -0.695434    3.935845   -0.158723
C      0.487261    4.676134   -0.211747
C      1.701049    4.020462   -0.204325
C      1.721096    2.630014   -0.143360
C      0.534495    1.849115   -0.087710
C      0.565069    0.431000   -0.023493
C     -0.635958   -0.317427    0.019838
C     -0.571825   -1.784972    0.081478
C      1.856189   -0.272236   -0.015280
C     -0.531793   -2.570298    1.278035
C     -0.464171   -3.916965    1.021520
S     -0.463629   -4.245247   -0.647519
C     -0.554759   -2.579796   -1.054334
C      2.578208   -0.707529   -1.172561
C      3.750074   -1.346246   -0.852161
S      3.996336   -1.413308    0.829598
C      2.529440   -0.583165    1.156111
C     -0.599141   -2.196845   -2.497421
C      2.163447   -0.308821    2.578048
H     -5.377430    2.131539    0.005396
H     -3.346293    3.434916   -0.087043
H     -3.123068   -1.474482    0.119146
H     -5.275089   -0.345240    0.110086
H     -1.615587    4.512797   -0.168685
H      0.449914    5.761132   -0.259358
H      2.631553    4.579545   -0.246347
H     -0.544406   -2.164422    2.281417
H      2.248357   -0.564846   -2.193594
H      0.279267   -2.581738   -3.026379
H     -1.497652   -2.603164   -2.973899
H     -0.615791   -1.111589   -2.633831
H      1.192518    0.187822    2.663558
H      2.909379    0.341884    3.046682
H      2.107619   -1.241559    3.149383
O      4.642044   -1.874056   -1.680990
O     -0.406298   -4.910592    1.899304
H      2.699805    2.152468   -0.140973
H      5.325226   -2.249937   -1.098940
H     -0.352287   -5.715511    1.355251
