26
Conformer  2, Energy = 41.2201 kcal/mol
C      1.539285    0.553736   -0.825754
C     -1.587998    0.256738   -0.888794
C      0.608705    1.058281   -1.843712
C     -0.727267    0.914273   -1.880547
C      1.547547   -0.790304   -0.434012
C     -1.535411    0.588368    0.470334
C      2.481038    1.428752   -0.270666
C     -2.525488   -0.689159   -1.321304
C      2.463469   -1.245328    0.517258
C     -2.386475   -0.035706    1.385263
C      3.397710    0.973221    0.679916
C     -3.377320   -1.312407   -0.406240
C      3.386855   -0.363159    1.075102
C     -3.305703   -0.987007    0.946974
H      1.088050    1.605360   -2.653823
H     -1.264374    1.328162   -2.732346
H      0.838839   -1.493547   -0.865111
H     -0.829259    1.334120    0.827919
H      2.502055    2.474440   -0.568246
H     -2.593421   -0.954236   -2.373720
H      2.454732   -2.289009    0.819879
H     -2.330598    0.223637    2.439088
H      4.119789    1.661712    1.110682
H     -4.096391   -2.050909   -0.750520
H      4.099278   -0.718076    1.815044
H     -3.967648   -1.471953    1.659493
