26
Conformer  1, Energy = 41.2201 kcal/mol
C      1.537604    0.288922   -0.978819
C     -1.586317    0.521552   -0.735728
C      0.607877    0.928022   -1.919003
C     -0.726439    1.044534   -1.805255
C      2.467908   -0.637747   -1.465123
C     -1.544368   -0.822141   -0.344958
C      1.556511    0.620209    0.381278
C     -2.512365    1.377337   -0.126843
C      3.383632   -1.242795   -0.600966
C     -2.394475   -1.295350    0.657173
C      2.471477    0.014319    1.245344
C     -3.363249    0.903606    0.874644
C      3.383333   -0.918131    0.754318
C     -3.302181   -0.432035    1.267754
H      1.086443    1.352370   -2.800054
H     -1.262767    1.581155   -2.586112
H      2.480599   -0.901999   -2.519860
H     -0.847325   -1.510910   -0.816543
H      0.856916    1.351489    0.779349
H     -2.571977    2.422196   -0.422098
H      4.096736   -1.966555   -0.986493
H     -2.346868   -2.338452    0.958168
H      2.471016    0.273082    2.300791
H     -4.073353    1.577350    1.346661
H      4.095022   -1.388934    1.427276
H     -3.963390   -0.801095    2.047257
