64
Conformer 240, Energy = 94.9273 kcal/mol
C     -4.611509    3.358728   -2.321532
N     -4.461408    2.427892   -1.233704
C     -5.201749    2.518354   -0.060020
C     -4.674663    1.719550    0.962207
C     -5.271747    1.643180    2.215278
C     -6.422180    2.395110    2.446988
C     -6.960164    3.195260    1.432150
C     -6.351593    3.256625    0.172632
C     -3.449579    0.990352    0.451188
C     -3.845354   -0.470525    0.154798
C     -2.296886    0.995632    1.471279
C     -3.155299    1.827215   -0.882289
O     -2.775888    0.945539   -1.957409
C     -1.433320    0.754483   -2.141152
C     -0.472589    1.688278   -1.738066
C     -0.904536    2.921285   -1.095012
C     -2.172757    2.976496   -0.677202
C      0.882367    1.415800   -1.947977
C      1.271342    0.202816   -2.532626
C      2.690242   -0.114932   -2.688253
C      3.503691   -0.801854   -1.860025
C      3.280568   -1.425013   -0.547059
C      1.937737   -1.256457    0.117577
C      4.321169   -2.083639    0.015606
C      4.375967   -2.728206    1.318232
C      5.457887   -3.315453    1.859741
C      6.764953   -3.450520    1.241254
C      7.775149   -2.431594    1.703298
C      7.071117   -4.378217    0.317995
C      6.140657   -5.425660   -0.168476
O      6.504045   -6.256011   -0.996957
C      0.299641   -0.706713   -2.965805
C     -1.052998   -0.424884   -2.779596
H     -4.452476    4.390899   -1.992402
H     -5.618326    3.283139   -2.743326
H     -3.910831    3.148028   -3.132332
H     -4.864091    1.009763    2.997263
H     -6.910807    2.352600    3.417429
H     -7.863370    3.770938    1.624436
H     -6.788514    3.878309   -0.603669
H     -2.985573   -1.048976   -0.190723
H     -4.627949   -0.536014   -0.610702
H     -4.231954   -0.967915    1.051478
H     -2.082696    2.004731    1.842357
H     -1.373982    0.582205    1.034559
H     -2.541262    0.381281    2.352514
H     -0.205954    3.727420   -0.927334
H     -2.531914    3.851228   -0.140440
H      1.641815    2.125923   -1.628538
H      3.112853    0.278996   -3.615376
H      4.527294   -0.899876   -2.228866
H      1.683555   -0.195317    0.219938
H      1.160009   -1.771979   -0.454439
H      1.892756   -1.666527    1.129198
H      5.257525   -2.127070   -0.544900
H      3.480217   -2.702051    1.937063
H      5.389247   -3.699459    2.878827
H      8.752934   -2.590669    1.235386
H      7.916882   -2.483983    2.794346
H      7.443565   -1.414355    1.436726
H      8.060943   -4.429341   -0.120514
H      5.123487   -5.430461    0.254094
H      0.589111   -1.646938   -3.433109
H     -1.804809   -1.137444   -3.106024
