64
Conformer 126, Energy = 89.6319 kcal/mol
C     -5.013848    0.677313   -1.112042
N     -4.493964    2.036054   -1.179807
C     -5.275218    3.040239   -0.567821
C     -4.508636    4.101639   -0.070119
C     -5.096025    5.198945    0.551378
C     -6.484117    5.229901    0.674359
C     -7.261801    4.180611    0.167606
C     -6.659025    3.085840   -0.461655
C     -3.045324    3.846539   -0.362926
C     -2.652261    4.720971   -1.571703
C     -2.137717    4.196717    0.826120
C     -3.110438    2.283442   -0.683272
O     -2.934922    1.537085    0.547606
C     -1.760069    0.868258    0.744243
C     -0.824315    0.633478   -0.263215
C     -1.100765    1.089495   -1.614992
C     -2.180018    1.855353   -1.800036
C      0.354791   -0.062651    0.034919
C      0.596755   -0.539760    1.331675
C      1.840499   -1.233241    1.703611
C      2.514171   -2.075246    0.900971
C      3.752198   -2.787677    1.237326
C      4.320991   -2.575019    2.620306
C      4.317306   -3.573969    0.294542
C      5.499690   -4.396273    0.442747
C      6.235312   -4.965782   -0.526511
C      6.154331   -4.819750   -1.975213
C      5.890682   -3.443123   -2.533475
C      6.427866   -5.820593   -2.832977
C      6.712798   -7.222056   -2.462213
O      7.089678   -8.033679   -3.301636
C     -0.356026   -0.295925    2.329278
C     -1.532092    0.396797    2.035311
H     -5.229330    0.372874   -0.080930
H     -5.929467    0.581287   -1.706609
H     -4.293744   -0.034395   -1.531481
H     -4.494705    6.022047    0.923257
H     -6.967903    6.076873    1.154463
H     -8.343805    4.221766    0.254853
H     -7.280783    2.293739   -0.866526
H     -2.759941    5.787847   -1.341329
H     -1.607064    4.558468   -1.858283
H     -3.282042    4.520625   -2.447489
H     -2.121011    5.278070    1.012276
H     -1.104823    3.885034    0.634019
H     -2.472551    3.725238    1.757166
H     -0.452812    0.799862   -2.432869
H     -2.426597    2.196650   -2.801020
H      1.091376   -0.221198   -0.748513
H      2.185749   -1.025786    2.712845
H      2.116282   -2.273412   -0.094803
H      4.502504   -1.509666    2.803053
H      5.278259   -3.075473    2.784150
H      3.627313   -2.950630    3.381055
H      3.831519   -3.648197   -0.676491
H      5.792918   -4.632665    1.464238
H      7.046707   -5.609752   -0.181192
H      6.335610   -2.661875   -1.904455
H      4.817409   -3.257522   -2.626829
H      6.326871   -3.324904   -3.530864
H      6.431876   -5.654012   -3.906941
H      6.566665   -7.498390   -1.408422
H     -0.196139   -0.649737    3.345629
H     -2.268830    0.573304    2.815639
