64
Conformer 110, Energy = 89.1183 kcal/mol
C     -2.132291    3.557798    1.880131
N     -3.371398    3.023625    1.332569
C     -4.244988    3.952885    0.728127
C     -5.005313    3.394142   -0.306950
C     -5.935367    4.144669   -1.017216
C     -6.107623    5.485422   -0.676043
C     -5.364378    6.050605    0.367380
C     -4.434557    5.283074    1.076526
C     -4.659872    1.927341   -0.449721
C     -4.524639    1.495138   -1.916237
C     -5.791183    1.114505    0.213441
C     -3.280574    1.904096    0.353578
O     -2.195576    2.196048   -0.562480
C     -1.326207    1.195335   -0.892291
C     -1.259120   -0.025974   -0.218973
C     -2.137490   -0.269042    0.912339
C     -3.076739    0.645707    1.172399
C     -0.325559   -0.987507   -0.623323
C      0.542585   -0.724175   -1.690217
C      1.505160   -1.732290   -2.133207
C      2.681172   -2.088555   -1.587252
C      3.409903   -1.575948   -0.426734
C      3.002344   -0.245684    0.162454
C      4.476075   -2.204276    0.119453
C      5.074469   -3.472844   -0.259927
C      6.166176   -3.969581    0.349089
C      6.839561   -5.225422    0.020187
C      6.284712   -6.041362   -1.126233
C      7.927598   -5.694834    0.662502
C      8.640402   -5.077713    1.802242
O      9.650035   -5.594695    2.267979
C      0.466467    0.501793   -2.358291
C     -0.462069    1.461738   -1.954444
H     -1.575310    4.143151    1.139014
H     -1.482983    2.748164    2.229978
H     -2.334983    4.192068    2.750015
H     -6.525173    3.703260   -1.813774
H     -6.829239    6.094196   -1.214893
H     -5.517756    7.093288    0.635155
H     -3.881846    5.735359    1.892189
H     -4.146894    0.469443   -1.987091
H     -5.492479    1.521181   -2.430529
H     -3.852321    2.148889   -2.482243
H     -5.935551    1.390779    1.264494
H     -6.749882    1.282358   -0.293316
H     -5.588488    0.039383    0.168208
H     -2.015589   -1.158934    1.518478
H     -3.736352    0.502895    2.023274
H     -0.262357   -1.941466   -0.103964
H      1.180192   -2.262112   -3.029549
H      3.183339   -2.894153   -2.121010
H      2.054753   -0.328905    0.701203
H      2.922498    0.521465   -0.614168
H      3.738290    0.128805    0.884073
H      4.963985   -1.717899    0.965841
H      4.606345   -4.025331   -1.065479
H      6.592940   -3.378521    1.154565
H      5.254828   -6.351808   -0.916965
H      6.863774   -6.954252   -1.305638
H      6.301885   -5.463920   -2.057145
H      8.385514   -6.631703    0.354371
H      8.229684   -4.146073    2.213335
H      1.132759    0.718874   -3.189742
H     -0.515297    2.417498   -2.469563
