64
Conformer 140, Energy = 90.8702 kcal/mol
C     -2.526480    5.111880    1.435207
N     -2.862373    4.231344    0.339756
C     -4.120408    4.233629   -0.258385
C     -4.340497    3.085460   -1.032779
C     -5.528178    2.887629   -1.724646
C     -6.516971    3.865575   -1.633865
C     -6.304231    5.020036   -0.869182
C     -5.100107    5.209082   -0.182860
C     -3.106161    2.207246   -0.983451
C     -2.306813    2.415678   -2.287366
C     -3.437272    0.714245   -0.843877
C     -2.367581    2.835076    0.286738
O     -0.948930    2.879187    0.046952
C     -0.141866    2.026616    0.743410
C     -0.555923    1.314309    1.871088
C     -1.919888    1.458128    2.352236
C     -2.764931    2.170417    1.601247
C      0.353304    0.483445    2.536500
C      1.667343    0.356385    2.070533
C      2.612007   -0.506212    2.782610
C      3.170421   -1.653195    2.359656
C      2.950272   -2.421538    1.133421
C      1.592167   -2.350065    0.481829
C      3.951533   -3.215580    0.695050
C      3.946859   -4.047890   -0.494007
C      4.987658   -4.825838   -0.838341
C      5.079547   -5.689125   -2.021188
C      3.887250   -5.730766   -2.944672
C      6.219510   -6.383544   -2.205320
C      6.517988   -7.306253   -3.321384
O      7.605828   -7.864315   -3.403004
C      2.075767    1.086460    0.949444
C      1.172511    1.920462    0.289188
H     -1.488092    4.964121    1.749207
H     -3.174531    4.941241    2.302176
H     -2.620373    6.160805    1.132540
H     -5.687071    2.002618   -2.331145
H     -7.455473    3.737931   -2.167534
H     -7.079426    5.779733   -0.814959
H     -4.948385    6.113913    0.394419
H     -1.398351    1.803282   -2.297472
H     -2.900056    2.133964   -3.165881
H     -2.009479    3.462065   -2.423376
H     -4.136568    0.517739   -0.024130
H     -2.530133    0.125592   -0.670429
H     -3.909022    0.325866   -1.753595
H     -2.227206    0.986354    3.278027
H     -3.798026    2.281236    1.918786
H      0.039175   -0.074218    3.415700
H      2.909613   -0.116608    3.754881
H      3.914662   -2.085602    3.031468
H      1.528865   -1.497017   -0.198955
H      0.797380   -2.273340    1.231345
H      1.354206   -3.250429   -0.091902
H      4.886680   -3.229543    1.255828
H      3.063822   -4.008950   -1.123136
H      5.861409   -4.828792   -0.183779
H      4.015377   -6.394938   -3.799842
H      3.683322   -4.734195   -3.351783
H      2.998602   -6.081126   -2.408570
H      7.046933   -6.305073   -1.503995
H      5.730975   -7.472040   -4.068667
H      3.097222    1.008792    0.584207
H      1.492593    2.488651   -0.579991
