64
Conformer 34, Energy = 85.8769 kcal/mol
C     -4.713444    1.637724    2.422012
N     -4.838750    2.200325    1.085024
C     -5.302014    3.527184    0.994895
C     -4.790228    4.211854   -0.112303
C     -5.148904    5.528039   -0.385124
C     -6.047367    6.165037    0.468421
C     -6.577735    5.483274    1.569616
C     -6.208369    4.160043    1.832496
C     -3.889078    3.289881   -0.905109
C     -2.593912    3.983928   -1.352969
C     -4.670011    2.830476   -2.153063
C     -3.656498    2.141066    0.181592
O     -2.474147    2.457772    0.959239
C     -1.352675    1.697625    0.781645
C     -1.346650    0.473144    0.114596
C     -2.584852   -0.052759   -0.433484
C     -3.658804    0.740324   -0.397569
C     -0.153218   -0.252263    0.007213
C      1.044068    0.246882    0.542553
C      2.306510   -0.510933    0.486750
C      2.658049   -1.316169   -0.529988
C      3.874188   -2.126887   -0.617276
C      4.943463   -1.916008    0.426305
C      3.976665   -3.015625   -1.629020
C      5.052171   -3.950220   -1.888392
C      5.430416   -4.910157   -1.027567
C      6.448504   -5.936433   -1.261698
C      7.198072   -5.881910   -2.569508
C      6.618825   -6.885637   -0.319858
C      7.557819   -8.025767   -0.391771
O      7.540460   -8.921323    0.447099
C      1.016978    1.472839    1.220331
C     -0.175246    2.193699    1.340023
H     -4.105196    2.272874    3.075461
H     -5.700172    1.502798    2.876870
H     -4.251430    0.644787    2.386705
H     -4.753374    6.049157   -1.250129
H     -6.347076    7.191376    0.270752
H     -7.289504    5.980096    2.222590
H     -6.644790    3.642686    2.679020
H     -2.066077    4.461058   -0.517593
H     -1.912103    3.268230   -1.828899
H     -2.798189    4.774368   -2.084880
H     -4.918772    3.681601   -2.798570
H     -5.617808    2.343608   -1.894032
H     -4.080004    2.131847   -2.756911
H     -2.620425   -1.053103   -0.848434
H     -4.604102    0.372000   -0.784649
H     -0.166179   -1.222442   -0.483203
H      2.953188   -0.385793    1.350248
H      1.982181   -1.401997   -1.380748
H      4.613466   -2.307114    1.393500
H      5.888008   -2.407990    0.175885
H      5.179590   -0.850661    0.530140
H      3.189248   -3.067894   -2.379695
H      5.478431   -3.877969   -2.885866
H      4.916629   -4.958018   -0.065823
H      8.016636   -6.599009   -2.637479
H      7.645604   -4.895981   -2.731288
H      6.515572   -6.098705   -3.398462
H      6.009816   -6.908939    0.581940
H      8.264987   -8.046246   -1.231749
H      1.923451    1.881956    1.662162
H     -0.185893    3.144396    1.868005
