64
Conformer 220, Energy = 94.1826 kcal/mol
C     -4.360032    1.723072    2.647688
N     -3.827462    2.481862    1.524805
C     -4.765911    2.961595    0.586537
C     -4.241523    3.061292   -0.708092
C     -5.004898    3.531171   -1.771123
C     -6.323092    3.911663   -1.526042
C     -6.853822    3.828801   -0.233016
C     -6.073428    3.358714    0.828438
C     -2.791651    2.626612   -0.699277
C     -1.920444    3.899337   -0.741437
C     -2.437626    1.737039   -1.899706
C     -2.757152    1.856232    0.698847
O     -3.111372    0.467390    0.481588
C     -2.143089   -0.486686    0.616722
C     -0.893226   -0.245345    1.189281
C     -0.580694    1.078976    1.697109
C     -1.465655    2.053202    1.466337
C      0.030299   -1.291303    1.296276
C     -0.291919   -2.571869    0.827460
C      0.662167   -3.674530    0.954164
C      1.847467   -3.812935    0.335850
C      2.466680   -2.982155   -0.692277
C      1.563456   -2.380868   -1.744150
C      3.802046   -2.809096   -0.804669
C      4.837024   -3.317517    0.073737
C      6.162898   -3.101068    0.014226
C      6.953299   -2.242631   -0.865008
C      6.391095   -0.900301   -1.253578
C      8.192943   -2.653577   -1.196190
C      9.127786   -1.912690   -2.069509
O     10.261800   -2.326997   -2.277961
C     -1.553111   -2.806352    0.271781
C     -2.475727   -1.764531    0.166282
H     -4.989592    0.889191    2.316551
H     -4.949871    2.368958    3.306900
H     -3.548479    1.313108    3.258474
H     -4.589658    3.611310   -2.770352
H     -6.940152    4.283539   -2.339868
H     -7.879641    4.138735   -0.050774
H     -6.498085    3.319003    1.825102
H     -2.138729    4.576550    0.092783
H     -2.092073    4.467193   -1.664231
H     -0.853558    3.651408   -0.709679
H     -1.425288    1.330763   -1.799244
H     -2.470292    2.302142   -2.838908
H     -3.135385    0.900114   -2.014832
H      0.335040    1.250193    2.249454
H     -1.271169    3.049775    1.850847
H      1.005712   -1.115243    1.745021
H      0.360436   -4.436623    1.671254
H      2.428728   -4.688919    0.623564
H      0.792351   -3.093569   -2.056099
H      2.119276   -2.111127   -2.650083
H      1.084336   -1.468367   -1.380845
H      4.152664   -2.225492   -1.650485
H      4.505789   -3.990755    0.862227
H      6.760540   -3.663304    0.736296
H      5.909360   -0.950473   -2.234954
H      7.169381   -0.130918   -1.295070
H      5.663528   -0.538011   -0.518582
H      8.588374   -3.606811   -0.856310
H      8.757706   -0.984895   -2.529018
H     -1.823181   -3.796858   -0.086305
H     -3.455193   -1.947123   -0.267948
