64
Conformer 236, Energy = 94.6830 kcal/mol
C     -4.598007    2.716471   -2.430413
N     -4.282666    2.527292   -1.032889
C     -5.246279    2.173524   -0.091462
C     -4.675640    1.701960    1.099647
C     -5.457162    1.303101    2.176379
C     -6.843675    1.380033    2.051644
C     -7.423564    1.858736    0.869567
C     -6.623706    2.261578   -0.205196
C     -3.164530    1.754326    0.982663
C     -2.661452    3.004867    1.735191
C     -2.474091    0.516160    1.572860
C     -3.011307    1.898289   -0.602094
O     -1.943026    2.814628   -0.906755
C     -0.771649    2.305396   -1.389787
C     -0.644436    1.012873   -1.903251
C     -1.802291    0.135274   -1.937474
C     -2.910289    0.556291   -1.319996
C      0.593011    0.585346   -2.396788
C      1.700269    1.443137   -2.370175
C      2.993828    1.003870   -2.894249
C      3.836685    0.090510   -2.382566
C      3.783244   -0.677645   -1.136112
C      2.987004   -0.124754    0.018591
C      4.519002   -1.808734   -1.063146
C      4.617498   -2.722360    0.060433
C      5.425506   -3.797757    0.045187
C      5.588743   -4.775843    1.118715
C      4.784302   -4.565281    2.381987
C      6.410194   -5.843508    1.054603
C      7.301843   -6.282114   -0.054525
O      7.379445   -5.759659   -1.156357
C      1.556329    2.742318   -1.874597
C      0.321632    3.171703   -1.386110
H     -5.333036    3.518472   -2.556185
H     -3.707028    3.011142   -2.995013
H     -5.002274    1.802812   -2.879516
H     -5.008704    0.949797    3.098772
H     -7.479627    1.077881    2.879935
H     -8.505737    1.924637    0.788569
H     -7.089055    2.641003   -1.107607
H     -1.572159    3.098659    1.664529
H     -3.105426    3.926269    1.340054
H     -2.916334    2.955995    2.800839
H     -2.899139   -0.418260    1.191050
H     -2.581786    0.483880    2.663691
H     -1.401140    0.523153    1.351844
H     -1.745685   -0.826632   -2.432545
H     -3.787961   -0.083444   -1.301662
H      0.703847   -0.419459   -2.799076
H      3.258415    1.470997   -3.842259
H      4.713609   -0.121588   -2.998625
H      3.333250   -0.496715    0.987081
H      3.085745    0.964263    0.081872
H      1.929385   -0.387787   -0.074088
H      5.096207   -2.112543   -1.938118
H      3.997315   -2.516806    0.925329
H      6.021819   -3.959133   -0.851008
H      5.040037   -3.608052    2.849366
H      3.710493   -4.582571    2.166338
H      4.971768   -5.345161    3.129107
H      6.475197   -6.515454    1.907340
H      7.919389   -7.161684    0.197680
H      2.403021    3.424507   -1.860283
H      0.210827    4.181793   -1.000953
