64
Conformer 159, Energy = 91.6117 kcal/mol
C     -2.915302    2.719648   -2.578592
N     -3.603103    2.762670   -1.308482
C     -4.288844    3.894373   -0.872160
C     -4.566942    3.848775    0.501407
C     -5.254242    4.871975    1.141961
C     -5.668192    5.966788    0.384072
C     -5.401307    6.018974   -0.990511
C     -4.714587    4.977504   -1.623698
C     -4.040004    2.547216    1.073804
C     -5.226468    1.575340    1.242305
C     -3.355946    2.724988    2.436963
C     -3.051689    2.102202   -0.101319
O     -3.145720    0.679194   -0.297222
C     -2.094726   -0.103593    0.086254
C     -0.825151    0.395678    0.384356
C     -0.577784    1.825381    0.303997
C     -1.628640    2.620344    0.080316
C      0.199311   -0.490298    0.737876
C     -0.043407   -1.869077    0.787939
C      1.019194   -2.797236    1.173974
C      2.083930   -3.197471    0.457447
C      2.472132   -2.912084   -0.922865
C      1.395089   -2.530871   -1.911369
C      3.735529   -3.060799   -1.380775
C      4.926118   -3.410365   -0.624371
C      6.114360   -3.643174   -1.210126
C      7.359296   -3.988997   -0.526371
C      7.340429   -4.032560    0.985307
C      8.519579   -4.266826   -1.154764
C      8.775069   -4.287909   -2.612029
O      9.882669   -4.572590   -3.053235
C     -1.318987   -2.357977    0.491380
C     -2.339586   -1.476282    0.133921
H     -2.444234    1.743040   -2.735592
H     -3.619044    2.868972   -3.405230
H     -2.138445    3.489252   -2.642490
H     -5.477815    4.823520    2.202456
H     -6.210066    6.780644    0.859271
H     -5.738752    6.873875   -1.571894
H     -4.528212    5.028272   -2.690429
H     -5.742545    1.390537    0.294183
H     -5.971681    1.974926    1.939908
H     -4.894306    0.610961    1.638370
H     -2.866338    1.796449    2.753015
H     -4.082904    2.990544    3.214914
H     -2.606667    3.524715    2.425470
H      0.423697    2.215618    0.439103
H     -1.485009    3.696074    0.036933
H      1.193383   -0.113498    0.967711
H      0.916325   -3.170384    2.192499
H      2.759908   -3.866628    0.989143
H      1.082840   -1.492314   -1.774489
H      0.525928   -3.190922   -1.820871
H      1.740664   -2.620804   -2.948423
H      3.912468   -2.876827   -2.441184
H      4.828689   -3.465081    0.454170
H      6.149775   -3.574169   -2.293700
H      6.638918   -4.793079    1.343299
H      8.321784   -4.280363    1.405805
H      7.053220   -3.059286    1.398032
H      9.408946   -4.514555   -0.580698
H      7.937475   -4.038494   -3.278700
H     -1.522424   -3.425716    0.523225
H     -3.327660   -1.858221   -0.109215
