64
Conformer 118, Energy = 89.3110 kcal/mol
C     -2.941153    3.179882    2.594654
N     -3.889550    3.126462    1.492276
C     -4.188481    4.350133    0.859065
C     -4.505319    4.200851   -0.496118
C     -4.848374    5.290335   -1.289103
C     -4.875525    6.555995   -0.705080
C     -4.573560    6.714754    0.652901
C     -4.235451    5.609568    1.439929
C     -4.441571    2.735871   -0.871072
C     -3.744834    2.506142   -2.219199
C     -5.888580    2.209522   -0.957740
C     -3.615422    2.179031    0.376292
O     -2.199925    2.240714    0.069486
C     -1.518885    1.073285   -0.127239
C     -2.029927   -0.184398    0.190861
C     -3.354715   -0.293256    0.775998
C     -4.085526    0.822037    0.859908
C     -1.248865   -1.325610   -0.033004
C      0.044622   -1.218442   -0.563971
C      0.811863   -2.450204   -0.809096
C      2.140459   -2.557732   -0.632484
C      2.940450   -3.764589   -0.842255
C      2.200943   -5.056866   -1.108482
C      4.288909   -3.793432   -0.781493
C      5.198377   -2.680181   -0.598677
C      6.517412   -2.737579   -0.347720
C      7.364884   -3.894300   -0.071245
C      6.827617   -4.955874    0.853953
C      8.612117   -3.900760   -0.578027
C      9.594389   -4.989491   -0.391582
O     10.724246   -4.909321   -0.858233
C      0.537506    0.051267   -0.888817
C     -0.236960    1.191862   -0.661593
H     -2.701539    2.171874    2.949164
H     -3.367620    3.717467    3.447991
H     -2.003564    3.667697    2.305229
H     -5.100272    5.166440   -2.337425
H     -5.142100    7.423805   -1.302718
H     -4.610028    7.704112    1.101648
H     -4.025049    5.750913    2.493732
H     -4.345290    2.895007   -3.050462
H     -3.591738    1.436781   -2.400890
H     -2.772161    3.008822   -2.273604
H     -6.438107    2.356404   -0.020994
H     -5.908189    1.141556   -1.201640
H     -6.453272    2.729294   -1.741287
H     -3.717732   -1.248787    1.135024
H     -5.072461    0.777535    1.309945
H     -1.646882   -2.306161    0.218769
H      0.217313   -3.298615   -1.135992
H      2.678070   -1.682352   -0.277002
H      1.648379   -4.999777   -2.052609
H      2.877820   -5.915386   -1.184594
H      1.499025   -5.276065   -0.296000
H      4.774953   -4.754333   -0.939605
H      4.781993   -1.686741   -0.754080
H      7.048241   -1.782905   -0.352395
H      7.608747   -5.349581    1.512781
H      6.406414   -5.791481    0.286436
H      6.054073   -4.558680    1.520256
H      8.976710   -3.092504   -1.205371
H      9.263315   -5.873512    0.172798
H      1.523710    0.169402   -1.329994
H      0.156070    2.174098   -0.910219
