64
Conformer 96, Energy = 88.8782 kcal/mol
C     -1.133028    4.003129   -0.779212
N     -2.559292    3.724073   -0.866149
C     -3.380450    4.328529    0.108808
C     -4.517772    3.569751    0.411645
C     -5.460473    4.004366    1.336678
C     -5.255858    5.229655    1.969059
C     -4.129362    6.003083    1.663842
C     -3.191498    5.556547    0.726972
C     -4.523110    2.311684   -0.429753
C     -5.531457    2.519872   -1.578543
C     -4.930194    1.069799    0.375952
C     -2.995495    2.299668   -0.894068
O     -2.210577    1.569977    0.082412
C     -1.702048    0.349978   -0.262630
C     -1.669502   -0.132700   -1.572151
C     -2.183582    0.691009   -2.652614
C     -2.798365    1.830257   -2.321395
C     -1.114231   -1.391134   -1.831292
C     -0.585673   -2.159435   -0.786846
C     -0.025274   -3.481767   -1.067604
C      1.258524   -3.876371   -1.014049
C      2.486063   -3.122530   -0.746729
C      2.495596   -1.640402   -1.025107
C      3.571728   -3.813336   -0.333964
C      4.879603   -3.275819   -0.005469
C      5.915646   -4.056070    0.350799
C      7.257822   -3.596270    0.705372
C      7.521836   -2.107072    0.671961
C      8.271492   -4.411519    1.058437
C      8.249856   -5.887026    1.161090
O      9.251069   -6.510260    1.495668
C     -0.626653   -1.667835    0.521901
C     -1.177263   -0.412137    0.781144
H     -0.929103    5.054347   -1.009537
H     -0.730626    3.775810    0.214689
H     -0.576800    3.410216   -1.513183
H     -6.342787    3.414296    1.561396
H     -5.978644    5.592067    2.695653
H     -3.985322    6.962613    2.153930
H     -2.335688    6.178963    0.491680
H     -6.547534    2.667227   -1.192213
H     -5.562767    1.648895   -2.242433
H     -5.291318    3.402169   -2.183537
H     -4.350034    0.967520    1.299809
H     -4.797131    0.158751   -0.217346
H     -5.984829    1.114148    0.672486
H     -2.056182    0.383150   -3.683476
H     -3.176884    2.477875   -3.106628
H     -1.080593   -1.773116   -2.849090
H     -0.781038   -4.227844   -1.311323
H      1.419460   -4.941211   -1.196878
H      1.926123   -1.404518   -1.930352
H      3.500371   -1.252376   -1.214754
H      2.082319   -1.081655   -0.180945
H      3.478498   -4.891149   -0.195672
H      4.995189   -2.198162   -0.041418
H      5.739010   -5.127890    0.375897
H      6.867025   -1.580991    1.375249
H      8.552869   -1.861503    0.951076
H      7.359894   -1.706786   -0.334888
H      9.245931   -3.998793    1.309715
H      7.306279   -6.398413    0.926844
H     -0.223633   -2.255437    1.343602
H     -1.200132   -0.027897    1.797463
