64
Conformer 177, Energy = 92.0546 kcal/mol
C     -4.914687    0.223263    1.337184
N     -4.751734    1.630448    1.046529
C     -5.795574    2.283042    0.371218
C     -5.353070    3.276690   -0.505024
C     -6.249702    4.073687   -1.215863
C     -7.615985    3.859244   -1.043724
C     -8.072899    2.867022   -0.164697
C     -7.162207    2.074044    0.544148
C     -3.838321    3.337481   -0.510828
C     -3.314511    3.162415   -1.950014
C     -3.389642    4.710470    0.018561
C     -3.470190    2.101156    0.454294
O     -2.898534    1.025449   -0.328468
C     -1.549302    0.798981   -0.225032
C     -0.753484    1.327305    0.789108
C     -1.363248    2.133167    1.831281
C     -2.639045    2.489632    1.663558
C      0.619872    1.051603    0.808546
C      1.198601    0.231803   -0.167929
C      2.652858    0.025533   -0.142210
C      3.248605   -1.166483   -0.304426
C      4.692107   -1.399356   -0.302132
C      5.592471   -0.231505    0.034954
C      5.271713   -2.589362   -0.582416
C      4.640079   -3.836710   -0.959799
C      5.205601   -5.058754   -0.898221
C      6.490572   -5.424404   -0.320066
C      6.732238   -5.011677    1.123365
C      7.413242   -6.163370   -0.963047
C      7.319253   -6.618094   -2.367302
O      8.191197   -7.320365   -2.862585
C      0.384829   -0.300323   -1.172857
C     -0.984694   -0.017622   -1.198760
H     -5.171682   -0.352061    0.436177
H     -3.997410   -0.202837    1.769048
H     -5.707237    0.083567    2.088947
H     -5.902625    4.853540   -1.889027
H     -8.327278    4.483552   -1.570891
H     -9.141450    2.727176   -0.013314
H     -7.533138    1.323147    1.239030
H     -2.218551    3.081659   -1.971688
H     -3.591409    4.017733   -2.583863
H     -3.735011    2.265144   -2.424335
H     -3.680268    5.512995   -0.667147
H     -3.840186    4.944889    0.990600
H     -2.298593    4.750891    0.117289
H     -0.795090    2.419783    2.704734
H     -3.134241    3.078088    2.429450
H      1.245187    1.475237    1.591802
H      3.226151    0.929658    0.017237
H      2.615352   -2.036562   -0.445045
H      5.334134    0.173273    1.024376
H      5.499491    0.562862   -0.715934
H      6.654695   -0.516631    0.075802
H      6.364960   -2.629872   -0.546110
H      3.635804   -3.770132   -1.374420
H      4.622781   -5.900131   -1.272474
H      7.124477   -3.985374    1.190659
H      7.461624   -5.664455    1.612508
H      5.800981   -5.077252    1.712992
H      8.338997   -6.449339   -0.469231
H      6.426700   -6.299829   -2.939571
H      0.805184   -0.918821   -1.953407
H     -1.618758   -0.424309   -1.981560
