64
Conformer 185, Energy = 92.2541 kcal/mol
C     -3.550330    1.609990   -2.543394
N     -4.223012    1.650419   -1.253052
C     -5.002957    2.794057   -0.982590
C     -5.056088    3.108692    0.380713
C     -5.787768    4.192722    0.852215
C     -6.483926    4.975233   -0.067536
C     -6.449961    4.661253   -1.431367
C     -5.713593    3.564556   -1.891720
C     -4.253634    2.092176    1.163774
C     -3.394007    2.740786    2.257973
C     -5.249481    1.112964    1.818864
C     -3.399807    1.457726   -0.026651
O     -2.174372    2.216379   -0.183756
C     -0.991256    1.634016    0.172917
C     -0.848534    0.271183    0.438699
C     -2.001158   -0.605679    0.326992
C     -3.189989   -0.037214    0.105325
C      0.409930   -0.237738    0.779521
C      1.521363    0.612040    0.850162
C      2.834619    0.086820    1.223678
C      3.665379   -0.680118    0.496752
C      3.570864   -1.147114   -0.884991
C      2.770983   -0.327108   -1.869857
C      4.243496   -2.224145   -1.347977
C      5.064284   -3.156873   -0.596240
C      5.771196   -4.134814   -1.190399
C      6.611946   -5.126114   -0.522902
C      6.673909   -5.082509    0.987118
C      7.330746   -6.069153   -1.165927
C      7.447339   -6.331868   -2.626266
O      6.797935   -5.782303   -3.503371
C      1.366578    1.976033    0.586411
C      0.113355    2.483440    0.240444
H     -4.277797    1.514087   -3.356600
H     -2.943240    2.506186   -2.717790
H     -2.891905    0.736724   -2.610182
H     -5.828898    4.426717    1.910592
H     -7.064124    5.827771    0.276030
H     -7.006058    5.270772   -2.139088
H     -5.714751    3.327973   -2.949450
H     -4.015023    3.160309    3.058404
H     -2.784657    3.565031    1.871244
H     -2.725751    2.004254    2.716672
H     -4.726527    0.333320    2.383458
H     -5.894579    0.624328    1.079215
H     -5.911324    1.632413    2.523036
H     -1.881256   -1.679068    0.413207
H     -4.068118   -0.666959   -0.002285
H      0.534150   -1.299267    0.982531
H      3.130222    0.344462    2.240057
H      4.573435   -0.986808    1.015943
H      3.015020   -0.582647   -2.907930
H      1.698600   -0.499877   -1.747226
H      2.985073    0.741359   -1.759368
H      4.155084   -2.460139   -2.409847
H      5.075004   -3.050550    0.482028
H      5.721057   -4.195542   -2.275366
H      5.677694   -5.224961    1.420270
H      7.079344   -4.125528    1.332159
H      7.315973   -5.868876    1.399375
H      7.937149   -6.761354   -0.586971
H      8.196479   -7.102096   -2.876920
H      2.219877    2.648277    0.636580
H     -0.004199    3.541948    0.024648
