64
Conformer 154, Energy = 91.4946 kcal/mol
C     -3.751769    2.182656   -2.616908
N     -4.205459    2.181735   -1.236782
C     -5.182562    3.100368   -0.851152
C     -5.024065    3.562596    0.455104
C     -5.954835    4.424432    1.043496
C     -7.061246    4.830411    0.295886
C     -7.224759    4.378310   -1.016298
C     -6.284767    3.511808   -1.593352
C     -3.736992    3.026274    1.047033
C     -2.806498    4.215202    1.352504
C     -4.015855    2.280204    2.362635
C     -3.200455    2.099212   -0.143210
O     -1.940637    2.619924   -0.626983
C     -0.798789    1.922282   -0.342515
C     -0.791614    0.603764    0.114381
C     -2.049671   -0.094316    0.313786
C     -3.172086    0.618786    0.193028
C      0.429436   -0.043795    0.352383
C      1.645693    0.614693    0.122348
C      2.942115   -0.028489    0.395381
C      3.216963   -1.308707    0.087087
C      4.475441   -2.011889    0.345792
C      5.530073   -1.280248    1.147719
C      4.740646   -3.267861   -0.085009
C      3.885001   -4.149489   -0.861460
C      4.269194   -5.268452   -1.498710
C      5.610993   -5.822564   -1.582716
C      6.577245   -5.073584   -2.467061
C      5.977720   -6.962349   -0.969912
C      5.095115   -7.763438   -0.090081
O      5.455169   -8.851879    0.349807
C      1.619833    1.940885   -0.328045
C      0.404133    2.587555   -0.567992
H     -3.283692    3.140158   -2.881251
H     -4.580699    1.997872   -3.318050
H     -3.017522    1.387348   -2.781972
H     -5.834222    4.779819    2.060577
H     -7.805513    5.493620    0.740943
H     -8.094789    4.688473   -1.587873
H     -6.451892    3.143078   -2.598632
H     -2.634006    4.834413    0.465034
H     -1.835335    3.874299    1.729318
H     -3.232333    4.875193    2.117240
H     -4.780050    1.511628    2.246532
H     -3.108967    1.813206    2.755100
H     -4.378971    2.965152    3.136010
H     -2.059809   -1.151581    0.549864
H     -4.130239    0.128708    0.337512
H      0.428283   -1.068482    0.725123
H      3.691527    0.618243    0.848295
H      2.432915   -1.883565   -0.402877
H      6.438800   -1.876810    1.286165
H      5.150203   -1.038423    2.143833
H      5.832606   -0.356159    0.647210
H      5.713871   -3.688293    0.168229
H      2.834054   -3.882848   -0.948564
H      3.512055   -5.826554   -2.051897
H      6.928454   -4.163736   -1.968286
H      6.112577   -4.790408   -3.419882
H      7.459150   -5.681350   -2.703322
H      6.978413   -7.369587   -1.087185
H      4.104042   -7.338916    0.146766
H      2.546959    2.478730   -0.508586
H      0.391419    3.612736   -0.925577
