64
Conformer 167, Energy = 91.8762 kcal/mol
C     -2.935792    4.820176   -1.097625
N     -3.739429    3.730695   -0.593155
C     -4.758578    3.924246    0.336182
C     -5.155815    2.725138    0.945784
C     -6.168730    2.689067    1.896305
C     -6.794392    3.885795    2.242128
C     -6.410592    5.088421    1.632735
C     -5.392901    5.108854    0.672524
C     -4.346864    1.580214    0.368232
C     -3.886901    0.575979    1.434474
C     -5.222636    0.837615   -0.663221
C     -3.156373    2.395064   -0.320934
O     -2.831279    1.791590   -1.586927
C     -1.634654    1.149461   -1.720589
C     -0.590640    1.251763   -0.800583
C     -0.754680    2.079140    0.383152
C     -1.961600    2.609376    0.602521
C      0.613838    0.578113   -1.043173
C      0.776672   -0.205279   -2.195300
C      2.040109   -0.892425   -2.503138
C      2.782945   -1.538931   -1.587802
C      4.039765   -2.242475   -1.843105
C      4.484296   -2.379898   -3.282300
C      4.806092   -2.791676   -0.875403
C      4.611513   -2.735825    0.559557
C      5.252080   -3.451434    1.500293
C      6.202903   -4.551091    1.355904
C      5.942729   -5.574756    0.281590
C      7.202790   -4.643320    2.252587
C      8.247301   -5.689214    2.249756
O      9.106826   -5.728458    3.121573
C     -0.274570   -0.281494   -3.116840
C     -1.474815    0.391059   -2.879119
H     -3.562224    5.560198   -1.607309
H     -2.208399    4.459994   -1.833064
H     -2.389073    5.323406   -0.292990
H     -6.479973    1.755694    2.354317
H     -7.592915    3.886791    2.980299
H     -6.914717    6.013206    1.902899
H     -5.117715    6.046380    0.201010
H     -3.396318    1.065364    2.283014
H     -3.191498   -0.154971    1.008871
H     -4.735841    0.018020    1.847043
H     -4.675606    0.007584   -1.123511
H     -6.119514    0.416388   -0.193428
H     -5.562956    1.503047   -1.465287
H      0.077535    2.240772    1.057741
H     -2.124628    3.219181    1.486570
H      1.435139    0.678858   -0.337786
H      2.335383   -0.853055   -3.547650
H      2.414820   -1.567394   -0.565570
H      5.407555   -2.962223   -3.378926
H      3.720483   -2.893126   -3.877585
H      4.679164   -1.396066   -3.723794
H      5.715788   -3.299434   -1.188079
H      3.921738   -1.976022    0.922055
H      5.037132   -3.178026    2.535858
H      4.880991   -5.623768    0.019927
H      6.516752   -5.344975   -0.621729
H      6.210201   -6.584428    0.609483
H      7.331096   -3.908649    3.042751
H      8.226057   -6.418509    1.426800
H     -0.171458   -0.867354   -4.027454
H     -2.285620    0.327629   -3.600581
