64
Conformer 141, Energy = 90.8724 kcal/mol
C     -2.025186    5.266301    1.066758
N     -2.941758    4.211878    0.700767
C     -4.063523    4.437829   -0.093178
C     -4.599126    3.246986   -0.604166
C     -5.728272    3.241955   -1.414345
C     -6.331017    4.461878   -1.717097
C     -5.808314    5.657037   -1.204662
C     -4.673920    5.646269   -0.385614
C     -3.780443    2.074887   -0.098432
C     -4.544362    1.412524    1.067295
C     -3.522354    1.015477   -1.179219
C     -2.467547    2.841390    0.395044
O     -1.995548    2.255502    1.622859
C     -0.855804    1.504654    1.589257
C      0.041451    1.507374    0.519024
C     -0.222223    2.345767   -0.638311
C     -1.403950    2.967941   -0.690309
C      1.195961    0.719075    0.584532
C      1.451638   -0.068705    1.713946
C      2.665001   -0.881276    1.792071
C      2.938024   -2.042709    1.173320
C      2.113057   -2.888054    0.311934
C      0.609791   -2.794453    0.431358
C      2.628571   -3.815700   -0.524988
C      4.026492   -4.085331   -0.810924
C      4.420120   -5.108805   -1.588457
C      5.799450   -5.458062   -1.943434
C      6.896319   -4.558377   -1.432052
C      5.994482   -6.554978   -2.702455
C      7.293402   -7.082639   -3.170438
O      7.351646   -8.098358   -3.854753
C      0.556706   -0.049567    2.787846
C     -0.594486    0.736358    2.724152
H     -1.228289    4.883563    1.712967
H     -1.562034    5.721639    0.184921
H     -2.541570    6.049506    1.630733
H     -6.145195    2.315676   -1.796611
H     -7.218427    4.485612   -2.345332
H     -6.293174    6.601445   -1.438844
H     -4.290737    6.579285    0.012005
H     -4.731408    2.115959    1.886862
H     -3.985032    0.562850    1.473726
H     -5.520252    1.034573    0.739444
H     -3.126611    1.451937   -2.103039
H     -2.815107    0.257575   -0.824356
H     -4.447502    0.494978   -1.453410
H      0.515679    2.439236   -1.425923
H     -1.646325    3.586082   -1.549798
H      1.900754    0.712155   -0.243857
H      3.437706   -0.441632    2.421799
H      3.937831   -2.430961    1.365389
H      0.296447   -2.804495    1.480769
H      0.230470   -1.892030   -0.056741
H      0.107489   -3.644038   -0.045663
H      1.927448   -4.435977   -1.085357
H      4.759762   -3.412568   -0.381296
H      3.649447   -5.760920   -2.000995
H      7.895976   -4.864489   -1.740614
H      6.898376   -4.540121   -0.337670
H      6.755718   -3.536689   -1.800269
H      5.158428   -7.163292   -3.038697
H      8.197805   -6.532544   -2.883236
H      0.747210   -0.647617    3.675999
H     -1.289162    0.751237    3.559747
