64
Conformer 263, Energy = 97.5925 kcal/mol
C     -3.338579    4.394472    0.757325
N     -4.015714    3.126106    0.982367
C     -5.150478    2.864640    0.187482
C     -5.346402    1.498612   -0.050740
C     -6.423258    1.035310   -0.798201
C     -7.323611    1.965817   -1.314994
C     -7.144086    3.333682   -1.072036
C     -6.059094    3.785791   -0.314365
C     -4.261241    0.704468    0.644567
C     -3.712309   -0.429855   -0.233333
C     -4.870067    0.099891    1.926910
C     -3.208530    1.875521    0.910711
O     -2.318685    1.980300   -0.228898
C     -1.020692    1.578640   -0.086215
C     -0.421685    1.325099    1.148977
C     -1.190178    1.502412    2.369073
C     -2.494963    1.762264    2.243243
C      0.920216    0.931316    1.197605
C      1.655813    0.781729    0.015524
C      3.058488    0.375131    0.073967
C      3.590872   -0.853292   -0.040285
C      2.980204   -2.169852   -0.225383
C      1.485990   -2.325005   -0.094119
C      3.713033   -3.280717   -0.462459
C      5.146173   -3.404312   -0.630896
C      5.840322   -2.809009   -1.613579
C      7.276396   -2.933887   -1.791848
C      7.999771   -1.611214   -1.746778
C      7.954790   -4.077355   -2.001848
C      7.409237   -5.453304   -2.140025
O      6.227383   -5.743691   -2.247218
C      1.050382    1.050290   -1.215764
C     -0.285306    1.450116   -1.264983
H     -3.064531    4.534307   -0.295029
H     -3.971222    5.231491    1.070256
H     -2.423414    4.456543    1.355899
H     -6.571897   -0.025038   -0.973787
H     -8.174318    1.628739   -1.902022
H     -7.857320    4.051050   -1.470553
H     -5.948148    4.847847   -0.124168
H     -4.461623   -1.215987   -0.388792
H     -2.841223   -0.901126    0.235717
H     -3.420180   -0.076394   -1.228615
H     -4.123120   -0.472189    2.490461
H     -5.690438   -0.588016    1.687559
H     -5.282764    0.869118    2.590912
H     -0.706110    1.429991    3.335585
H     -3.094944    1.917856    3.134640
H      1.397332    0.731623    2.154430
H      3.739794    1.213612    0.216104
H      4.679340   -0.873263    0.029154
H      1.136536   -1.955061    0.874424
H      1.173112   -3.373814   -0.152966
H      0.965015   -1.802948   -0.901069
H      3.208258   -4.245911   -0.523305
H      5.637898   -4.090513    0.054586
H      5.328978   -2.146998   -2.311724
H      7.641804   -0.946766   -2.541427
H      9.081060   -1.728009   -1.878238
H      7.838784   -1.118223   -0.780866
H      9.035752   -4.047780   -2.105462
H      8.186634   -6.235721   -2.152023
H      1.611701    0.945356   -2.140635
H     -0.754942    1.656110   -2.222850
