64
Conformer 258, Energy = 97.0940 kcal/mol
C     -3.409068    3.886529    1.979634
N     -3.612078    3.332955    0.649138
C     -4.923479    2.926602    0.328374
C     -4.958870    1.861594   -0.579644
C     -6.160213    1.329155   -1.033488
C     -7.351123    1.881814   -0.566192
C     -7.327427    2.956360    0.331060
C     -6.112086    3.486125    0.775112
C     -3.546091    1.474678   -0.959160
C     -3.261252    2.055353   -2.359563
C     -3.348081   -0.047355   -0.998531
C     -2.748639    2.196302    0.221826
O     -2.620280    1.283419    1.341415
C     -1.396861    0.725792    1.588122
C     -0.208689    1.192708    1.023430
C     -0.238847    2.348928    0.144793
C     -1.437477    2.813343   -0.220358
C      0.998590    0.556897    1.332376
C      1.017552   -0.546330    2.195554
C      2.278273   -1.217064    2.517214
C      3.063010   -1.941579    1.700222
C      2.866305   -2.352582    0.307554
C      1.453166   -2.538127   -0.186173
C      3.964856   -2.614794   -0.435024
C      4.000762   -3.046128   -1.818356
C      5.079625   -3.240865   -2.596117
C      6.494318   -3.003480   -2.324878
C      6.882053   -1.738215   -1.602813
C      7.391844   -3.871958   -2.831475
C      8.865277   -3.789589   -2.668620
O      9.438430   -3.070538   -1.860622
C     -0.174082   -0.987498    2.777665
C     -1.378930   -0.351941    2.473370
H     -3.915661    4.853062    2.078626
H     -2.345793    4.072359    2.163586
H     -3.777202    3.215446    2.763024
H     -6.180574    0.508559   -1.742825
H     -8.303540    1.484530   -0.908133
H     -8.262328    3.387732    0.679446
H     -6.115460    4.331196    1.453797
H     -3.936109    1.627805   -3.111103
H     -3.400154    3.142530   -2.391520
H     -2.238413    1.831424   -2.681695
H     -3.914016   -0.502162   -1.820371
H     -3.690844   -0.533361   -0.077784
H     -2.293439   -0.300528   -1.151185
H      0.685008    2.808694   -0.185724
H     -1.497661    3.685364   -0.864687
H      1.929724    0.910645    0.895789
H      2.612666   -1.052625    3.540977
H      4.005160   -2.279207    2.137841
H      0.804988   -2.929991    0.605576
H      1.382006   -3.270638   -0.995397
H      1.040560   -1.594750   -0.556797
H      4.937895   -2.493930    0.035370
H      3.042870   -3.277109   -2.277869
H      4.879182   -3.650179   -3.588643
H      7.748090   -1.260261   -2.071844
H      6.084592   -0.987441   -1.639155
H      7.119223   -1.943686   -0.554188
H      7.070543   -4.740035   -3.399109
H      9.428044   -4.460008   -3.342863
H     -0.174133   -1.832852    3.460942
H     -2.305712   -0.701095    2.920053
