64
Conformer 50, Energy = 86.7414 kcal/mol
C     -3.834845    3.739604   -1.970295
N     -3.817895    3.334170   -0.582587
C     -3.965594    4.243727    0.463016
C     -3.567447    3.705754    1.695227
C     -3.642350    4.440083    2.873135
C     -4.128458    5.744764    2.808743
C     -4.537645    6.288539    1.584135
C     -4.461203    5.535427    0.406841
C     -3.119266    2.272377    1.489919
C     -1.857789    1.921694    2.290394
C     -4.261823    1.336826    1.936679
C     -2.914366    2.265022   -0.094943
O     -3.376867    1.016304   -0.643736
C     -2.441158    0.098422   -1.028547
C     -1.097339    0.408859   -1.245915
C     -0.640809    1.777339   -1.067003
C     -1.499574    2.644613   -0.520930
C     -0.212903   -0.595801   -1.659303
C     -0.662613   -1.911175   -1.846323
C      0.232426   -2.987451   -2.297026
C      1.480262   -3.161791   -1.827498
C      2.409193   -4.219139   -2.226394
C      1.902008   -5.261505   -3.197388
C      3.678505   -4.322985   -1.776832
C      4.387060   -3.444957   -0.863789
C      5.655290   -3.675724   -0.476568
C      6.446293   -2.842518    0.427463
C      5.792551   -1.600472    0.991894
C      7.717113   -3.109312    0.788362
C      8.553464   -4.255056    0.368233
O      9.702987   -4.379114    0.776708
C     -2.019213   -2.197328   -1.654481
C     -2.904259   -1.197188   -1.246315
H     -4.792822    4.207106   -2.223777
H     -3.718819    2.874505   -2.632573
H     -3.031112    4.450799   -2.191565
H     -3.343994    4.012858    3.825120
H     -4.202159    6.340612    3.715795
H     -4.925903    7.303012    1.549346
H     -4.795321    5.967892   -0.530063
H     -1.052792    2.648606    2.138875
H     -1.482410    0.929512    2.016451
H     -2.063932    1.906972    3.367011
H     -4.484414    1.462653    3.005280
H     -3.993766    0.285187    1.780419
H     -5.192285    1.534937    1.388641
H      0.364269    2.061019   -1.353318
H     -1.186732    3.669435   -0.346527
H      0.829392   -0.348736   -1.848007
H     -0.197865   -3.660196   -3.033277
H      1.833222   -2.467959   -1.069932
H      2.655063   -6.025868   -3.417923
H      1.625565   -4.800407   -4.151268
H      1.030277   -5.781795   -2.787268
H      4.271630   -5.163231   -2.140862
H      3.857771   -2.572742   -0.499029
H      6.138217   -4.564149   -0.873633
H      5.498037   -0.917991    0.186516
H      4.906207   -1.862049    1.582010
H      6.464305   -1.041508    1.655353
H      8.246617   -2.443451    1.465869
H      8.105930   -4.985551   -0.320221
H     -2.399708   -3.203296   -1.813779
H     -3.956205   -1.428183   -1.098559
