64
Conformer 108, Energy = 89.0864 kcal/mol
C     -2.655606    4.894655   -0.566937
N     -2.932185    3.795859    0.349639
C     -4.277005    3.393542    0.473441
C     -4.413958    2.034082    0.775377
C     -5.659450    1.451901    0.972397
C     -6.795145    2.254395    0.861855
C     -6.670772    3.617718    0.566911
C     -5.410017    4.191651    0.376570
C     -3.044237    1.399218    0.885682
C     -2.975266    0.034555    0.183288
C     -2.740465    1.211547    2.388586
C     -2.168335    2.529088    0.175525
O     -2.083353    2.249888   -1.244553
C     -0.902489    1.774722   -1.742305
C      0.303418    1.819998   -1.040071
C      0.342663    2.429216    0.278161
C     -0.824892    2.759990    0.837706
C      1.462553    1.300255   -1.626082
C      1.416344    0.735020   -2.908341
C      2.629703    0.183563   -3.514005
C      3.307835   -0.905220   -3.116493
C      2.972797   -1.878643   -2.076148
C      1.521095   -2.266844   -1.925745
C      3.982518   -2.433174   -1.371943
C      3.862267   -3.420245   -0.314797
C      4.926467   -3.900045    0.353496
C      4.890904   -4.905145    1.414989
C      3.578604   -5.610934    1.669221
C      5.954497   -5.258147    2.161140
C      7.315842   -4.686081    2.105769
O      8.210135   -5.115900    2.823469
C      0.209778    0.722806   -3.614954
C     -0.947719    1.241547   -3.031399
H     -3.058212    4.705486   -1.571610
H     -3.081894    5.830621   -0.189387
H     -1.575480    5.058711   -0.660340
H     -5.755803    0.399651    1.220228
H     -7.780742    1.822352    1.015966
H     -7.561459    4.238004    0.493704
H     -5.333902    5.253156    0.167951
H     -3.596876   -0.713340    0.692719
H     -1.946638   -0.346617    0.177904
H     -3.336319    0.084865   -0.849339
H     -2.797151    2.157183    2.939485
H     -1.744721    0.781760    2.543732
H     -3.458646    0.529192    2.860105
H      1.291532    2.604598    0.771768
H     -0.831601    3.225460    1.819175
H      2.407610    1.326758   -1.086016
H      3.023888    0.775951   -4.337580
H      4.248509   -1.100445   -3.632707
H      1.007198   -1.602325   -1.224814
H      1.397173   -3.293385   -1.565704
H      1.002651   -2.236134   -2.890624
H      5.001061   -2.104424   -1.582533
H      2.862194   -3.762885   -0.066112
H      5.903026   -3.512292    0.072473
H      3.667693   -6.385712    2.437723
H      3.221369   -6.105462    0.759239
H      2.816751   -4.904161    2.013838
H      5.863366   -6.034001    2.919111
H      7.489343   -3.860826    1.404283
H      0.159067    0.301422   -4.616542
H     -1.889513    1.221996   -3.575564
