64
Conformer 116, Energy = 89.2813 kcal/mol
C     -4.967343    2.050588    1.926856
N     -4.608802    2.668693    0.656283
C     -4.517765    4.064054    0.572477
C     -3.611267    4.502089   -0.395622
C     -3.419168    5.864225   -0.661684
C     -4.158131    6.801451    0.059393
C     -5.073812    6.370583    1.027254
C     -5.254437    5.001000    1.284579
C     -2.956888    3.302134   -1.067898
C     -3.444573    3.230427   -2.533835
C     -1.417183    3.455749   -1.056717
C     -3.491441    2.103938   -0.142332
O     -2.445737    1.680993    0.768160
C     -1.789079    0.512323    0.485374
C     -2.294786   -0.458887   -0.381256
C     -3.580386   -0.252137   -1.024780
C     -4.130098    0.959968   -0.910028
C     -1.570337   -1.636217   -0.601563
C     -0.332662   -1.849312    0.027120
C      0.362169   -3.121491   -0.228041
C      1.697885   -3.265562   -0.337025
C      2.389914   -4.516367   -0.651084
C      1.539175   -5.699669   -1.067147
C      3.731514   -4.673688   -0.622456
C      4.750310   -3.714485   -0.232376
C      6.062904   -3.991548   -0.328566
C      7.173352   -3.119247    0.048308
C      6.825484   -1.757442    0.602617
C      8.479361   -3.456932   -0.059009
C      9.089276   -4.720520   -0.557954
O      8.487375   -5.639407   -1.092836
C      0.152876   -0.876118    0.911536
C     -0.573096    0.299191    1.139599
H     -4.242012    2.295961    2.719867
H     -5.964507    2.372651    2.248994
H     -5.023305    0.959341    1.831070
H     -2.716352    6.195316   -1.421567
H     -4.038021    7.869162   -0.137900
H     -5.659060    7.103019    1.575183
H     -5.990628    4.689848    2.021464
H     -2.995745    2.371048   -3.054171
H     -3.158807    4.128115   -3.094545
H     -4.539222    3.149265   -2.607184
H     -1.028954    3.630345   -0.041838
H     -1.097534    4.313789   -1.662688
H     -0.920656    2.563229   -1.473125
H     -4.058166   -1.053457   -1.575090
H     -5.093918    1.155438   -1.371777
H     -1.971355   -2.392359   -1.275791
H     -0.304036   -3.974418   -0.357169
H      2.322383   -2.381103   -0.218380
H      2.147000   -6.567373   -1.352768
H      0.917066   -5.446429   -1.937568
H      0.889378   -6.021526   -0.242299
H      4.129739   -5.649319   -0.909550
H      4.415306   -2.761230    0.157588
H      6.335212   -4.966349   -0.726476
H      6.228196   -1.850678    1.517785
H      6.265992   -1.169887   -0.134604
H      7.719617   -1.179412    0.862326
H      9.242309   -2.747949    0.258287
H     10.182732   -4.774710   -0.406723
H      1.090897   -1.027486    1.444119
H     -0.188155    1.048782    1.827168
