64
Conformer 164, Energy = 91.8414 kcal/mol
C     -4.349263    0.855046   -1.939926
N     -4.173863    2.100683   -1.228515
C     -5.252034    2.898722   -0.850642
C     -4.896448    3.844749    0.121713
C     -5.818900    4.748707    0.633185
C     -7.128535    4.698162    0.157286
C     -7.491919    3.762326   -0.820149
C     -6.550663    2.862437   -1.331089
C     -3.419857    3.703998    0.436530
C     -3.112034    3.820853    1.936144
C     -2.654125    4.815431   -0.312154
C     -3.139180    2.255261   -0.177736
O     -1.851502    2.245761   -0.821950
C     -0.839423    1.526402   -0.254792
C     -1.030452    0.585908    0.759630
C     -2.368317    0.337907    1.269193
C     -3.351566    1.127249    0.826852
C      0.067416   -0.123823    1.259409
C      1.348808    0.098281    0.740403
C      2.489922   -0.642950    1.275240
C      3.109170   -1.725982    0.773965
C      2.835739   -2.539566   -0.411008
C      1.492014   -2.413099   -1.090241
C      3.705316   -3.451653   -0.901930
C      5.048829   -3.759444   -0.442449
C      5.781726   -4.758262   -0.966500
C      7.138730   -5.131529   -0.568327
C      7.806156   -4.307688    0.510302
C      7.830401   -6.159015   -1.099872
C      7.386382   -7.097602   -2.153654
O      8.121970   -7.995553   -2.547882
C      1.530772    1.043655   -0.273172
C      0.436411    1.750925   -0.773351
H     -3.381427    0.391347   -2.158502
H     -4.948228    0.142368   -1.362604
H     -4.844573    1.024398   -2.902181
H     -5.534068    5.485723    1.376705
H     -7.871061    5.395018    0.538321
H     -8.513726    3.739728   -1.190758
H     -6.846900    2.153354   -2.095927
H     -2.064808    3.573423    2.141216
H     -3.283352    4.841444    2.298424
H     -3.746222    3.165599    2.543344
H     -2.817460    4.766820   -1.395441
H     -1.575666    4.744782   -0.130711
H     -2.976663    5.810727    0.016952
H     -2.542331   -0.452339    1.989480
H     -4.361107    0.982573    1.200839
H     -0.071629   -0.861420    2.046574
H      2.876389   -0.217915    2.201453
H      3.955857   -2.061954    1.370802
H      1.406309   -1.458767   -1.616743
H      0.675247   -2.514610   -0.368521
H      1.333552   -3.196557   -1.840834
H      3.386764   -4.033158   -1.768503
H      5.460718   -3.138404    0.344672
H      5.321110   -5.344896   -1.756756
H      7.237620   -4.358700    1.445328
H      7.891910   -3.260118    0.201400
H      8.819606   -4.658788    0.733376
H      8.838334   -6.379197   -0.755029
H      6.377142   -6.958954   -2.564975
H      2.520367    1.225899   -0.685560
H      0.576613    2.476280   -1.570375
