64
Conformer 204, Energy = 93.5127 kcal/mol
C     -4.176064    2.854404   -2.452656
N     -3.767961    2.974149   -1.059213
C     -4.782401    2.967794   -0.084594
C     -4.354688    2.448677    1.144668
C     -5.202313    2.384194    2.244461
C     -6.508528    2.849638    2.104775
C     -6.944647    3.377167    0.882202
C     -6.079980    3.442783   -0.214909
C     -2.899131    2.046285    1.044446
C     -2.056211    3.122165    1.760741
C     -2.628209    0.683644    1.698900
C     -2.730229    2.039244   -0.546048
O     -3.025998    0.715402   -1.061696
C     -1.977485   -0.075012   -1.445156
C     -0.691551    0.414811   -1.681415
C     -0.432630    1.838277   -1.551221
C     -1.399910    2.591922   -1.019141
C      0.322572   -0.468752   -2.065591
C      0.053216   -1.836945   -2.208773
C      1.110245   -2.766305   -2.616361
C      2.213122   -3.105977   -1.927530
C      2.621177   -2.734897   -0.571981
C      1.546314   -2.586823    0.473464
C      3.942113   -2.616284   -0.316900
C      4.545849   -2.241488    0.946312
C      5.849901   -2.003835    1.166734
C      6.928735   -2.037296    0.196604
C      6.977578   -0.873494   -0.763061
C      7.861148   -3.006367    0.154838
C      7.889481   -4.190817    1.040524
O      8.830309   -4.979511    1.000987
C     -1.243648   -2.311537   -1.992010
C     -2.257013   -1.431193   -1.609635
H     -3.294779    2.747944   -3.099957
H     -4.826052    1.986829   -2.617577
H     -4.702119    3.759153   -2.780357
H     -4.860391    1.991600    3.196030
H     -7.190289    2.811713    2.949667
H     -7.962900    3.745015    0.785998
H     -6.430864    3.871811   -1.146212
H     -2.277414    3.155077    2.834008
H     -2.241101    4.126775    1.360586
H     -0.986647    2.913287    1.657442
H     -2.749354    0.730813    2.787477
H     -1.603246    0.353657    1.502381
H     -3.315974   -0.089809    1.339391
H      0.512945    2.255636   -1.878635
H     -1.248854    3.662506   -0.914259
H      1.328799   -0.098489   -2.249850
H      0.975197   -3.175697   -3.617483
H      2.923379   -3.749382   -2.452807
H      1.890736   -2.909727    1.462365
H      1.216863   -1.545643    0.551327
H      0.678950   -3.218741    0.254361
H      4.639873   -2.780899   -1.137053
H      3.882620   -2.124115    1.802122
H      6.156980   -1.724490    2.175656
H      7.944463   -0.809398   -1.275241
H      6.201134   -0.979929   -1.531837
H      6.822088    0.079853   -0.242614
H      8.671785   -2.977921   -0.566032
H      7.043427   -4.321076    1.735257
H     -1.469411   -3.368460   -2.105724
H     -3.263007   -1.801919   -1.430213
