64
Conformer 147, Energy = 91.0594 kcal/mol
C     -3.649982    2.914105   -2.584393
N     -3.827325    2.901189   -1.139986
C     -3.486671    4.083343   -0.449921
C     -3.042565    3.843915    0.856609
C     -2.679845    4.881493    1.707201
C     -2.764502    6.189528    1.233925
C     -3.218450    6.441787   -0.066208
C     -3.587352    5.388380   -0.909417
C     -3.077317    2.356910    1.134907
C     -4.325328    2.071355    1.995459
C     -1.829750    1.870119    1.885506
C     -3.175610    1.810500   -0.361342
O     -1.836923    1.622494   -0.885730
C     -1.380983    0.349718   -1.079802
C     -2.200783   -0.779294   -1.048355
C     -3.627266   -0.623038   -0.817778
C     -4.072488    0.597967   -0.505030
C     -1.643421   -2.043934   -1.276853
C     -0.271266   -2.184675   -1.527472
C      0.273544   -3.520105   -1.800365
C      1.310609   -4.112842   -1.185338
C      2.090767   -3.593258   -0.075684
C      1.357840   -3.461366    1.236436
C      3.396468   -3.272017   -0.172452
C      4.211705   -3.324095   -1.372864
C      5.517241   -3.021048   -1.451554
C      6.385618   -2.634510   -0.352243
C      6.788850   -1.182953   -0.360216
C      6.805307   -3.465592    0.616935
C      6.502539   -4.912576    0.685098
O      6.976159   -5.612208    1.573385
C      0.534982   -1.041245   -1.573951
C     -0.018640    0.220775   -1.349589
H     -2.627103    3.181871   -2.870897
H     -4.342910    3.620743   -3.053539
H     -3.875518    1.931102   -3.010388
H     -2.344882    4.687770    2.720864
H     -2.486328    7.019602    1.878379
H     -3.289429    7.466336   -0.422983
H     -3.952329    5.608712   -1.906269
H     -5.250752    2.399882    1.506496
H     -4.271285    2.597919    2.956925
H     -4.418066    1.001913    2.215849
H     -0.899317    2.178835    1.395405
H     -1.792850    2.271362    2.905496
H     -1.828585    0.778023    1.966669
H     -4.291097   -1.473922   -0.912425
H     -5.135613    0.754697   -0.349650
H     -2.279336   -2.926921   -1.258459
H     -0.236687   -4.062235   -2.594041
H      1.609021   -5.105795   -1.520857
H      0.742857   -4.347634    1.433874
H      2.051321   -3.356313    2.077774
H      0.709668   -2.577835    1.231771
H      3.889672   -2.900063    0.724190
H      3.705554   -3.595085   -2.298868
H      5.994729   -3.034314   -2.432293
H      7.414370   -0.931561    0.501103
H      5.901889   -0.540550   -0.314019
H      7.352184   -0.939786   -1.267678
H      7.448257   -3.116500    1.419306
H      5.856840   -5.330247   -0.100811
H      1.597627   -1.123640   -1.791814
H      0.612938    1.104811   -1.388044
