64
Conformer 16, Energy = 83.9257 kcal/mol
C     -1.962517    4.854868    0.734627
N     -3.124036    4.063662    1.117733
C     -4.377341    4.523754    0.659968
C     -5.297564    3.488117    0.453065
C     -6.594838    3.739837    0.019043
C     -6.974849    5.061543   -0.210682
C     -6.067273    6.105781    0.005180
C     -4.766976    5.839152    0.448114
C     -4.653570    2.163869    0.804145
C     -4.980359    1.065322   -0.217581
C     -5.183045    1.735542    2.189159
C     -3.119071    2.608160    0.798463
O     -2.582722    2.443701   -0.538876
C     -1.696219    1.429859   -0.767609
C     -1.060196    0.714048    0.247647
C     -1.325394    1.051878    1.636258
C     -2.289823    1.944563    1.880267
C     -0.158532   -0.305417   -0.084869
C      0.117421   -0.606337   -1.427464
C      1.021493   -1.699656   -1.814713
C      2.195204   -1.948647   -1.208790
C      3.136942   -3.022733   -1.545574
C      2.744655   -3.958684   -2.664292
C      4.284234   -3.109727   -0.838273
C      5.346532   -4.086589   -0.993516
C      6.459225   -4.074232   -0.238209
C      7.572657   -5.017787   -0.330602
C      7.527097   -6.051508   -1.435692
C      8.637379   -5.020372    0.498698
C      8.890769   -4.121941    1.647549
O      9.906488   -4.235679    2.326012
C     -0.534343    0.118262   -2.433166
C     -1.428947    1.138498   -2.104291
H     -1.036699    4.362705    1.051404
H     -1.979605    5.832784    1.227973
H     -1.911315    5.008087   -0.349465
H     -7.305183    2.933582   -0.132263
H     -7.983630    5.284466   -0.549809
H     -6.377023    7.133901   -0.165857
H     -4.085778    6.663687    0.626730
H     -4.777609    1.383726   -1.246194
H     -4.399522    0.158515   -0.016322
H     -6.040120    0.787262   -0.179699
H     -4.982447    2.490256    2.959306
H     -4.732357    0.789736    2.512627
H     -6.269695    1.583459    2.167816
H     -0.748394    0.593713    2.431141
H     -2.501886    2.231767    2.905729
H      0.321097   -0.876082    0.708113
H      0.678737   -2.297183   -2.654888
H      2.500238   -1.294564   -0.391574
H      3.472342   -4.749190   -2.855996
H      1.797933   -4.458743   -2.430779
H      2.628911   -3.405116   -3.603677
H      4.462455   -2.374595   -0.051908
H      5.214836   -4.851027   -1.748928
H      6.541007   -3.288711    0.506969
H      6.663920   -6.715466   -1.311109
H      8.420051   -6.686813   -1.447119
H      7.467702   -5.568616   -2.418201
H      9.433671   -5.749175    0.367700
H      8.134750   -3.356603    1.869598
H     -0.345046   -0.098721   -3.482294
H     -1.923822    1.701854   -2.890767
