64
Conformer 171, Energy = 91.9400 kcal/mol
C     -5.128792   -0.099952    0.223391
N     -4.850649    1.318408    0.255988
C     -5.683187    2.259610   -0.343407
C     -5.057410    3.507012   -0.482812
C     -5.712537    4.594389   -1.047500
C     -7.024718    4.421457   -1.485509
C     -7.661313    3.181810   -1.343715
C     -6.991913    2.097580   -0.765849
C     -3.657623    3.429191    0.095677
C     -2.613061    4.153923   -0.765505
C     -3.674147    4.072467    1.498646
C     -3.468359    1.843044    0.158387
O     -2.773474    1.481767    1.367036
C     -1.471894    1.079985    1.269948
C     -0.866451    0.698484    0.071894
C     -1.637018    0.720341   -1.160729
C     -2.858493    1.260877   -1.112630
C      0.471986    0.283987    0.073688
C      1.204896    0.233013    1.268306
C      2.624125   -0.154955    1.309457
C      3.168095   -1.119837    0.547407
C      4.568543   -1.543766    0.569818
C      5.464427   -0.943384    1.630772
C      5.093028   -2.455126   -0.278508
C      4.446867   -3.112838   -1.396382
C      4.881835   -4.187411   -2.078168
C      6.020758   -5.066838   -1.822624
C      6.348283   -5.405655   -0.390657
C      6.654425   -5.605621   -2.882024
C      7.821232   -6.509931   -2.800265
O      8.332879   -6.977748   -3.810409
C      0.580840    0.620785    2.460403
C     -0.753218    1.033233    2.462450
H     -6.093816   -0.317453    0.693710
H     -4.371395   -0.657766    0.782640
H     -5.149545   -0.482867   -0.802632
H     -5.227300    5.560758   -1.139097
H     -7.561958    5.255296   -1.930554
H     -8.688464    3.062861   -1.679401
H     -7.504061    1.149196   -0.654323
H     -1.599624    3.963466   -0.395773
H     -2.659519    3.851103   -1.817283
H     -2.767739    5.239355   -0.747884
H     -4.389782    3.578279    2.166747
H     -2.685748    4.024628    1.968654
H     -3.959972    5.130150    1.447424
H     -1.216007    0.325197   -2.077865
H     -3.454296    1.316404   -2.019216
H      0.946850    0.010889   -0.864471
H      3.222096    0.395345    2.030945
H      2.514865   -1.658663   -0.134451
H      5.552230    0.140432    1.495602
H      5.070138   -1.147766    2.631858
H      6.481109   -1.352584    1.598631
H      6.145204   -2.703326   -0.156922
H      3.543407   -2.637306   -1.773491
H      4.299175   -4.455639   -2.961965
H      6.678884   -6.443762   -0.282939
H      5.469662   -5.312214    0.257479
H      7.139201   -4.753597   -0.008300
H      6.361199   -5.373870   -3.901869
H      8.214626   -6.731354   -1.798447
H      1.124460    0.595756    3.402241
H     -1.231840    1.320751    3.394358
