64
Conformer 91, Energy = 88.7526 kcal/mol
C     -0.974269    3.858572   -0.731148
N     -2.329360    3.467111   -1.091459
C     -3.372195    4.284305   -0.607078
C     -4.561395    3.578603   -0.386275
C     -5.710939    4.210851    0.074421
C     -5.663913    5.582890    0.316037
C     -4.484192    6.300891    0.085663
C     -3.336305    5.653396   -0.383169
C     -4.360959    2.124745   -0.756434
C     -4.989753    1.167827    0.266392
C     -5.020047    1.895647   -2.132326
C     -2.765097    2.076970   -0.779016
O     -2.284205    1.742701    0.547312
C     -1.717575    0.516625    0.751248
C     -1.339320   -0.342551   -0.281704
C     -1.533444    0.066234   -1.661929
C     -2.199114    1.203968   -1.880781
C     -0.749819   -1.573989    0.025656
C     -0.532374   -1.941802    1.359810
C      0.064933   -3.236965    1.687713
C      1.326384   -3.653920    1.483443
C      2.499593   -2.948292    0.961782
C      2.552259   -1.446523    1.090753
C      3.510966   -3.691990    0.461510
C      4.755148   -3.207851   -0.108538
C      5.728863   -4.033542   -0.531866
C      7.003555   -3.629271   -1.123817
C      7.260318   -2.148259   -1.295181
C      7.960936   -4.488709   -1.526009
C      7.934925   -5.965976   -1.457477
O      8.879679   -6.632490   -1.864780
C     -0.920576   -1.076226    2.386740
C     -1.504173    0.154204    2.081409
H     -0.700191    4.800425   -1.218519
H     -0.251077    3.110072   -1.072354
H     -0.855391    3.975215    0.352266
H     -6.630744    3.658664    0.236630
H     -6.549171    6.101278    0.675635
H     -4.461559    7.372631    0.265857
H     -2.438721    6.231211   -0.572174
H     -4.717116    0.129505    0.048892
H     -6.084347    1.227653    0.248645
H     -4.680800    1.397581    1.292219
H     -6.099928    2.084732   -2.091569
H     -4.886966    0.861500   -2.468897
H     -4.610881    2.561046   -2.901822
H     -1.138432   -0.536013   -2.471294
H     -2.344288    1.546894   -2.900849
H     -0.448492   -2.249455   -0.772068
H     -0.644787   -3.942620    2.118591
H      1.514336   -4.696742    1.748814
H      3.575049   -1.058881    1.096934
H      2.118752   -1.115377    2.040347
H      2.023950   -0.964549    0.263598
H      3.398134   -4.776656    0.445344
H      4.873318   -2.133618   -0.198343
H      5.552517   -5.100080   -0.421876
H      8.237176   -1.945441   -1.749490
H      6.505244   -1.696783   -1.947895
H      7.246702   -1.637587   -0.326374
H      8.886277   -4.116201   -1.959666
H      7.040620   -6.438449   -1.029202
H     -0.761759   -1.348161    3.427552
H     -1.795958    0.831024    2.880147
