64
Conformer 224, Energy = 94.3384 kcal/mol
C     -3.005671    4.648690   -0.306966
N     -3.956095    3.728093    0.297462
C     -5.166219    3.510241   -0.390827
C     -5.688831    2.228416   -0.183471
C     -6.874652    1.818855   -0.781539
C     -7.568431    2.729593   -1.579592
C     -7.075904    4.026325   -1.763932
C     -5.870400    4.419087   -1.170802
C     -4.793649    1.465296    0.770742
C     -4.580312    0.010844    0.330208
C     -5.474139    1.477356    2.155392
C     -3.479328    2.371312    0.686022
O     -2.614455    1.875790   -0.367803
C     -1.520307    1.141112    0.000298
C     -0.991268    1.146421    1.291483
C     -1.599186    1.985553    2.309560
C     -2.772262    2.553166    2.014444
C      0.122682    0.350788    1.586384
C      0.710683   -0.449982    0.598192
C      1.816178   -1.342616    0.975606
C      2.907331   -1.556207    0.221705
C      4.003830   -2.475455    0.542896
C      3.793026   -3.433758    1.690859
C      5.106642   -2.470472   -0.238191
C      6.291824   -3.278366   -0.047603
C      7.239646   -3.644729   -0.928774
C      7.369248   -3.468681   -2.373877
C      6.174568   -2.992074   -3.164208
C      8.490356   -3.772097   -3.064943
C      9.802693   -4.281602   -2.578144
O     10.083019   -4.541428   -1.417813
C      0.173485   -0.436710   -0.694700
C     -0.930610    0.365321   -0.995021
H     -2.726691    4.345749   -1.321965
H     -2.091238    4.704272    0.294256
H     -3.414425    5.665067   -0.343578
H     -7.272736    0.823982   -0.617145
H     -8.507084    2.440329   -2.045209
H     -7.636886    4.741304   -2.364754
H     -5.513746    5.432342   -1.315055
H     -5.507978   -0.568520    0.406750
H     -4.252703   -0.061337   -0.713042
H     -3.835465   -0.484511    0.962678
H     -6.436157    0.951615    2.127611
H     -5.680839    2.496476    2.503548
H     -4.857567    0.980526    2.911378
H     -1.108399    2.129315    3.263341
H     -3.257031    3.189706    2.747598
H      0.532563    0.348512    2.593826
H      1.694541   -1.831108    1.938655
H      3.006512   -1.012941   -0.719104
H      2.823185   -3.932879    1.597286
H      4.534901   -4.235066    1.725590
H      3.826619   -2.907459    2.649175
H      5.161232   -1.753230   -1.049922
H      6.463793   -3.598147    0.981877
H      8.051383   -4.211666   -0.469589
H      6.021814   -1.917925   -3.025756
H      6.302640   -3.152319   -4.240889
H      5.266082   -3.535192   -2.882336
H      8.499235   -3.635105   -4.144195
H     10.547045   -4.418979   -3.380969
H      0.591611   -1.066331   -1.475050
H     -1.347702    0.365440   -1.998076
