64
Conformer 201, Energy = 93.2151 kcal/mol
C     -2.893590    3.221249    2.415474
N     -3.335184    3.341374    1.030720
C     -4.704974    3.583693    0.825946
C     -5.197054    3.019110   -0.353548
C     -6.516746    3.211140   -0.761499
C     -7.359608    3.978498    0.042563
C     -6.877637    4.547610    1.226855
C     -5.546896    4.351095    1.620429
C     -4.092807    2.255267   -1.058648
C     -4.567917    0.844284   -1.456491
C     -3.703646    3.034165   -2.333191
C     -2.968557    2.253144    0.084237
O     -3.003985    0.992296    0.798809
C     -2.024515    0.076955    0.529710
C     -0.828310    0.398695   -0.111916
C     -0.574034    1.769501   -0.515405
C     -1.587627    2.632928   -0.414622
C      0.132023   -0.596168   -0.337002
C     -0.087911   -1.916054    0.083356
C      0.881662   -2.996373   -0.182403
C      2.212441   -2.818656   -0.223803
C      3.228936   -3.826008   -0.546309
C      2.740153   -5.187673   -0.974291
C      4.526901   -3.448949   -0.487974
C      5.696797   -4.241606   -0.803295
C      6.975422   -3.825274   -0.812603
C      7.491260   -2.485280   -0.566951
C      6.915646   -1.358034   -1.382879
C      8.503911   -2.341390    0.308654
C      9.147996   -1.055289    0.678848
O      8.757135    0.046798    0.320817
C     -1.300350   -2.224356    0.719228
C     -2.254915   -1.229875    0.954139
H     -2.930563    4.195794    2.915776
H     -1.851692    2.882992    2.472910
H     -3.507768    2.507931    2.978897
H     -6.887086    2.778913   -1.685691
H     -8.394065    4.139045   -0.250085
H     -7.541123    5.145756    1.844092
H     -5.181583    4.822651    2.525359
H     -4.998808    0.304984   -0.602822
H     -5.349827    0.884655   -2.224960
H     -3.745192    0.244576   -1.866351
H     -3.452867    4.077282   -2.115203
H     -4.529170    3.056928   -3.055024
H     -2.852982    2.566538   -2.839666
H      0.403817    2.063920   -0.881252
H     -1.438034    3.670820   -0.698538
H      1.055411   -0.334568   -0.851264
H      0.447471   -3.982722   -0.343560
H      2.602071   -1.817244   -0.019228
H      2.102111   -5.101827   -1.858640
H      3.543165   -5.880554   -1.232307
H      2.162336   -5.661892   -0.173438
H      4.749398   -2.431760   -0.163404
H      5.532190   -5.289546   -1.026046
H      7.740333   -4.577444   -1.012451
H      6.274682   -1.723415   -2.195363
H      6.311506   -0.693656   -0.756261
H      7.707555   -0.772594   -1.870019
H      8.908144   -3.198601    0.838996
H     10.026221   -1.168013    1.333616
H     -1.505272   -3.239727    1.054108
H     -3.184403   -1.476036    1.460842
