64
Conformer 208, Energy = 93.7130 kcal/mol
C     -4.829629    1.066638   -2.172510
N     -4.936885    1.245175   -0.732272
C     -5.687037    2.351660   -0.287153
C     -5.228860    2.868227    0.930713
C     -5.842285    3.957310    1.538076
C     -6.942127    4.537571    0.906451
C     -7.420203    4.018589   -0.302911
C     -6.797744    2.917233   -0.898851
C     -4.053257    2.047107    1.416481
C     -2.915156    2.918751    1.965601
C     -4.562008    1.119553    2.535687
C     -3.677250    1.294164    0.060955
O     -2.717610    2.101637   -0.663713
C     -1.453340    1.623034   -0.851622
C     -1.065328    0.315840   -0.563111
C     -2.039086   -0.618919   -0.027105
C     -3.256611   -0.148302    0.259236
C      0.250568   -0.092285   -0.824091
C      1.191099    0.805333   -1.350617
C      2.572383    0.414481   -1.682912
C      3.275460   -0.537837   -1.044534
C      4.646832   -0.959628   -1.350955
C      5.377026   -0.216123   -2.442747
C      5.170234   -1.992554   -0.655406
C      6.511954   -2.524361   -0.763925
C      6.987050   -3.712802   -0.350946
C      6.317404   -4.886407    0.200460
C      4.867630   -5.123198   -0.148448
C      6.950265   -5.831277    0.925489
C      8.365998   -5.858346    1.388417
O      9.186766   -4.969935    1.215652
C      0.778766    2.112593   -1.640007
C     -0.535079    2.518584   -1.393900
H     -5.801321    0.807248   -2.607003
H     -4.453808    1.969892   -2.666421
H     -4.147059    0.242748   -2.415532
H     -5.483748    4.350910    2.482964
H     -7.437127    5.392584    1.360189
H     -8.285973    4.471316   -0.781779
H     -7.196044    2.518807   -1.825745
H     -3.202653    3.407997    2.903201
H     -2.633757    3.717062    1.272503
H     -2.025904    2.314311    2.173024
H     -4.932385    1.699381    3.390868
H     -5.389591    0.483217    2.202999
H     -3.760256    0.471395    2.907626
H     -1.775969   -1.659189    0.120805
H     -4.009731   -0.831709    0.640078
H      0.531024   -1.123992   -0.629787
H      3.013340    0.970673   -2.507195
H      2.809165   -1.056998   -0.207755
H      4.810225   -0.248984   -3.381602
H      5.525473    0.831632   -2.157702
H      6.359777   -0.632372   -2.673776
H      4.552839   -2.468796    0.103309
H      7.253845   -1.843641   -1.179415
H      8.065262   -3.829497   -0.477606
H      4.647494   -4.828304   -1.180849
H      4.208592   -4.579539    0.533414
H      4.602242   -6.184757   -0.072495
H      6.398326   -6.706146    1.261469
H      8.635964   -6.782505    1.929411
H      1.475945    2.831839   -2.064252
H     -0.844131    3.533910   -1.628444
