64
Conformer 84, Energy = 88.5088 kcal/mol
C     -1.502708    4.321381    0.764807
N     -2.726989    3.578097    1.022998
C     -3.931541    4.169858    0.587081
C     -4.905264    3.229589    0.229938
C     -6.163319    3.616198   -0.218015
C     -6.453252    4.977830   -0.295469
C     -5.493221    5.926051    0.079392
C     -4.230896    5.522921    0.527548
C     -4.360027    1.831281    0.442932
C     -4.706644    0.889016   -0.719066
C     -4.977969    1.279897    1.746294
C     -2.801343    2.167822    0.549693
O     -2.210204    2.105469   -0.772401
C     -1.404781    1.043492   -1.075840
C     -0.877906    0.176934   -0.116070
C     -1.167833    0.402417    1.289227
C     -2.069076    1.342941    1.588760
C     -0.054923   -0.880212   -0.518782
C      0.240870   -1.070615   -1.875153
C      1.073693   -2.197183   -2.300331
C      2.394746   -2.356792   -2.113099
C      3.378525   -1.441070   -1.542674
C      3.209021    0.035794   -1.806544
C      4.478771   -1.864147   -0.883758
C      4.801495   -3.227640   -0.505652
C      5.992017   -3.575203    0.012467
C      6.387977   -4.917303    0.451792
C      5.307769   -5.971736    0.504365
C      7.675990   -5.115827    0.788568
C      8.271344   -6.381876    1.268016
O      9.474805   -6.472466    1.479751
C     -0.289805   -0.195350   -2.827515
C     -1.102867    0.866074   -2.426532
H     -0.627465    3.741608    1.080559
H     -1.381386    4.569264   -0.296360
H     -1.484502    5.249504    1.345637
H     -6.916485    2.881520   -0.486164
H     -7.433183    5.306736   -0.635038
H     -5.731911    6.984748    0.031785
H     -3.507467    6.271950    0.830787
H     -4.188373   -0.069309   -0.608090
H     -4.438260    1.316281   -1.690266
H     -5.779992    0.675021   -0.754949
H     -4.781633    1.935599    2.602527
H     -4.589506    0.281900    1.980860
H     -6.067191    1.190418    1.662923
H     -0.659319   -0.173445    2.053343
H     -2.300348    1.547756    2.629864
H      0.359359   -1.559493    0.221648
H      0.516318   -3.001945   -2.779271
H      2.806834   -3.308031   -2.455979
H      2.882120    0.220812   -2.837171
H      2.483406    0.473670   -1.114511
H      4.149112    0.583911   -1.675562
H      5.196539   -1.112524   -0.553788
H      4.020893   -3.971444   -0.641862
H      6.751930   -2.797238    0.118565
H      5.638419   -6.925351    0.914688
H      4.480160   -5.632912    1.136542
H      4.919862   -6.173135   -0.501177
H      8.407212   -4.314570    0.720975
H      7.595754   -7.229165    1.431683
H     -0.068198   -0.329578   -3.883111
H     -1.509154    1.551802   -3.165836
