64
Conformer 56, Energy = 87.2547 kcal/mol
C     -2.535636    5.101390   -0.843294
N     -3.087053    4.468594    0.346494
C     -4.488328    4.528553    0.499594
C     -5.009534    3.428777    1.192136
C     -6.369494    3.312435    1.459282
C     -7.221983    4.324891    1.022541
C     -6.710171    5.435405    0.340083
C     -5.339510    5.542728    0.082639
C     -3.881531    2.498461    1.584300
C     -4.232775    1.021900    1.351727
C     -3.593018    2.717354    3.083793
C     -2.739627    3.043781    0.609895
O     -2.810831    2.324537   -0.647028
C     -1.802802    1.461428   -0.969769
C     -0.588751    1.397111   -0.287021
C     -0.345388    2.294209    0.829184
C     -1.360726    3.061169    1.237829
C      0.393862    0.490983   -0.706570
C      0.164162   -0.365228   -1.794174
C      1.184225   -1.305163   -2.287330
C      2.036371   -1.977215   -1.494152
C      3.074861   -2.917854   -1.929482
C      3.143244   -3.242101   -3.401291
C      3.899959   -3.430515   -0.991799
C      4.998263   -4.358246   -1.189077
C      5.776125   -4.776348   -0.172319
C      6.903779   -5.700783   -0.267268
C      7.205401   -6.294712   -1.624502
C      7.683927   -6.056751    0.774267
C      7.610843   -5.628534    2.199114
O      6.763099   -4.891179    2.679992
C     -1.055029   -0.275038   -2.477438
C     -2.032533    0.634146   -2.067624
H     -2.639967    6.190993   -0.785314
H     -3.024091    4.747990   -1.759656
H     -1.462582    4.895228   -0.930994
H     -6.765665    2.460560    2.002372
H     -8.289000    4.258289    1.220331
H     -7.382058    6.224712    0.013270
H     -4.959857    6.418736   -0.430783
H     -3.357955    0.383694    1.517255
H     -4.605357    0.840152    0.336815
H     -5.019261    0.684371    2.039141
H     -4.464895    2.458390    3.696890
H     -3.346105    3.761535    3.308967
H     -2.762334    2.089506    3.423653
H      0.630679    2.332891    1.297054
H     -1.204684    3.755544    2.057586
H      1.349345    0.464553   -0.188927
H      1.201589   -1.433541   -3.365926
H      1.965983   -1.828546   -0.416738
H      2.179617   -3.626788   -3.753950
H      3.885176   -4.002877   -3.651506
H      3.397214   -2.348399   -3.980365
H      3.757846   -3.124602    0.046827
H      5.185511   -4.708036   -2.199148
H      5.551065   -4.389856    0.821758
H      8.056038   -6.984669   -1.597966
H      6.347178   -6.862306   -1.996303
H      7.454150   -5.510040   -2.344940
H      8.504664   -6.750605    0.608879
H      8.417671   -6.045684    2.826443
H     -1.258181   -0.915954   -3.333129
H     -2.975130    0.696571   -2.604343
