64
Conformer 217, Energy = 94.1551 kcal/mol
C     -4.191124   -0.495797   -0.740098
N     -4.300029    0.948080   -0.900114
C     -5.368959    1.578452   -0.230405
C     -5.078147    2.896282    0.141862
C     -6.011129    3.691035    0.798923
C     -7.263147    3.148677    1.085778
C     -7.568948    1.837312    0.704812
C     -6.623628    1.051024    0.038936
C     -3.680045    3.252748   -0.315847
C     -3.806940    4.120229   -1.585517
C     -2.897161    4.034068    0.748441
C     -3.108922    1.785494   -0.581288
O     -2.515898    1.280562    0.642309
C     -1.155724    1.166667    0.711819
C     -0.316342    1.238948   -0.400445
C     -0.890367    1.439234   -1.719771
C     -2.200209    1.694352   -1.790560
C      1.065748    1.088113   -0.235021
C      1.606421    0.863763    1.037494
C      3.050371    0.703282    1.212713
C      3.814087   -0.357515    0.897227
C      3.454351   -1.675240    0.365940
C      2.051867   -2.186247    0.588135
C      4.423882   -2.407264   -0.227628
C      4.266496   -3.710724   -0.841313
C      5.234771   -4.552817   -1.240056
C      6.677253   -4.459439   -1.059393
C      7.184467   -4.100263    0.314883
C      7.561913   -4.799823   -2.017006
C      7.217042   -5.188039   -3.403025
O      8.083429   -5.538852   -4.196155
C      0.757180    0.804343    2.146537
C     -0.621613    0.944627    1.980818
H     -5.027683   -1.003490   -1.236104
H     -4.163105   -0.784165    0.317878
H     -3.276092   -0.869247   -1.216502
H     -5.783205    4.714633    1.078110
H     -8.010809    3.751519    1.596348
H     -8.552158    1.427673    0.921340
H     -6.888756    0.046025   -0.266467
H     -4.338070    5.055909   -1.374321
H     -2.821823    4.391802   -1.981074
H     -4.366214    3.610463   -2.378571
H     -3.318309    5.035014    0.901719
H     -1.852835    4.163760    0.445347
H     -2.914889    3.534694    1.723920
H     -0.267070    1.376340   -2.603035
H     -2.662749    1.836605   -2.763063
H      1.726928    1.135971   -1.097426
H      3.541103    1.586841    1.619095
H      4.884782   -0.217438    1.057706
H      1.689259   -1.923696    1.587965
H      1.990133   -3.277705    0.546029
H      1.366084   -1.789111   -0.166407
H      5.418371   -1.973964   -0.321427
H      3.243823   -4.015983   -1.060334
H      4.899384   -5.460720   -1.745061
H      6.553502   -4.538528    1.097565
H      8.199749   -4.480273    0.480108
H      7.216098   -3.016361    0.452666
H      8.631017   -4.782486   -1.826050
H      6.153853   -5.144977   -3.686517
H      1.159703    0.631250    3.141167
H     -1.280966    0.884372    2.842391
