64
Conformer 183, Energy = 92.2036 kcal/mol
C     -3.464636    3.705123   -2.308802
N     -3.936250    3.224177   -1.030239
C     -5.280736    2.942484   -0.797004
C     -5.466594    2.156819    0.350160
C     -6.731874    1.767077    0.770898
C     -7.833901    2.173519    0.018248
C     -7.658286    2.963608   -1.125834
C     -6.379267    3.354972   -1.533644
C     -4.119111    1.880075    0.988249
C     -3.970433    0.433587    1.483431
C     -3.947158    2.831508    2.192637
C     -3.150854    2.258002   -0.226231
O     -1.993944    2.946106    0.283812
C     -0.771854    2.348985    0.184058
C     -0.524554    1.204334   -0.575618
C     -1.611395    0.574365   -1.305609
C     -2.839135    1.072414   -1.134480
C      0.774558    0.684230   -0.641848
C      1.826111    1.290342    0.062354
C      3.206162    0.786213   -0.011137
C      3.522169   -0.520604   -0.002960
C      4.869503   -1.094074   -0.083685
C      6.029710   -0.133372   -0.196975
C      4.990047   -2.440101   -0.075201
C      6.215376   -3.210174   -0.113618
C      6.348777   -4.521898   -0.374625
C      5.356024   -5.495210   -0.816889
C      4.359785   -5.061193   -1.866189
C      5.364597   -6.785407   -0.429648
C      6.273584   -7.383773    0.574286
O      6.278710   -8.592385    0.780386
C      1.563937    2.447953    0.806583
C      0.270899    2.972958    0.868448
H     -3.923000    4.669361   -2.550415
H     -3.695649    3.000499   -3.114766
H     -2.381129    3.863636   -2.291002
H     -6.869529    1.169212    1.667010
H     -8.836714    1.885894    0.324128
H     -8.524811    3.281953   -1.699166
H     -6.262657    3.973572   -2.416398
H     -4.241965   -0.299298    0.715592
H     -2.941774    0.233674    1.802292
H     -4.623052    0.239613    2.343963
H     -2.971347    2.686946    2.672343
H     -4.715747    2.655870    2.957548
H     -4.027722    3.884938    1.895291
H     -1.419709   -0.274120   -1.950394
H     -3.676004    0.614991   -1.654104
H      0.969038   -0.191208   -1.257826
H      3.971386    1.554505   -0.061638
H      2.711531   -1.244802    0.080522
H      6.110129    0.474909    0.710982
H      6.991946   -0.627041   -0.342100
H      5.900320    0.533664   -1.056730
H      4.083468   -3.036985    0.007481
H      7.126208   -2.678588    0.157482
H      7.361194   -4.918381   -0.279972
H      3.479390   -4.594497   -1.406488
H      4.004033   -5.913192   -2.455940
H      4.809061   -4.355262   -2.577270
H      4.649660   -7.496576   -0.833991
H      6.935039   -6.697005    1.122222
H      2.361783    2.951154    1.348780
H      0.076655    3.871903    1.449235
