64
Conformer 146, Energy = 91.0555 kcal/mol
C     -1.589232    4.196752    1.439661
N     -2.842865    3.693128    0.926753
C     -3.825869    4.533936    0.409493
C     -4.775564    3.835631   -0.349820
C     -5.851171    4.480586   -0.947300
C     -5.972887    5.859029   -0.778329
C     -5.033311    6.565115   -0.015433
C     -3.958278    5.901392    0.585443
C     -4.430611    2.359263   -0.344075
C     -4.606428    1.698064   -1.718374
C     -5.354387    1.648659    0.667402
C     -2.915621    2.425610    0.160958
O     -2.664260    1.344104    1.077877
C     -1.879040    0.307403    0.662366
C     -1.057927    0.362318   -0.466239
C     -1.026218    1.570288   -1.273722
C     -1.905423    2.532318   -0.976928
C     -0.260394   -0.740190   -0.794098
C     -0.282866   -1.890688    0.004223
C      0.539930   -3.048542   -0.342880
C      1.851383   -3.249376   -0.126675
C      2.855079   -2.435327    0.558765
C      2.392836   -1.355775    1.508998
C      4.185527   -2.647262    0.443654
C      4.876841   -3.606575   -0.399822
C      6.206454   -3.794692   -0.337872
C      6.996902   -4.730313   -1.144682
C      6.268720   -5.519271   -2.203127
C      8.317520   -4.820755   -0.889387
C      9.289711   -5.700027   -1.574615
O     10.472331   -5.704460   -1.251552
C     -1.113132   -1.937985    1.127884
C     -1.901796   -0.836167    1.460981
H     -1.760078    4.871224    2.285360
H     -1.028508    4.739288    0.670816
H     -0.961782    3.378328    1.807568
H     -6.589345    3.931630   -1.522377
H     -6.807306    6.388586   -1.231377
H     -5.145391    7.638299    0.118461
H     -3.248199    6.461861    1.183034
H     -4.099941    2.254038   -2.515057
H     -4.218652    0.673210   -1.711896
H     -5.665177    1.644680   -2.001315
H     -6.408196    1.746771    0.380081
H     -5.255970    2.067671    1.675823
H     -5.129930    0.577609    0.723953
H     -0.322242    1.662603   -2.092031
H     -1.927597    3.439083   -1.574755
H      0.387801   -0.706817   -1.666950
H     -0.016764   -3.826452   -0.865145
H      2.223831   -4.196902   -0.514674
H      3.216184   -0.961717    2.116629
H      1.974598   -0.504924    0.964223
H      1.652539   -1.744915    2.215442
H      4.849355   -2.014980    1.035590
H      4.279409   -4.171500   -1.106521
H      6.770575   -3.206787    0.387648
H      5.516855   -6.171721   -1.746922
H      6.919275   -6.159267   -2.800109
H      5.767571   -4.845707   -2.907252
H      8.783821   -4.221076   -0.111119
H      8.911995   -6.346759   -2.378370
H     -1.140287   -2.824375    1.757227
H     -2.534398   -0.867175    2.344468
