64
Conformer 214, Energy = 93.8446 kcal/mol
C     -3.367531    1.853276   -2.519196
N     -4.215828    1.906952   -1.337161
C     -4.680624    3.182094   -0.952313
C     -4.878929    3.297192    0.429102
C     -5.351230    4.472007    1.003568
C     -5.632249    5.553579    0.170281
C     -5.450725    5.445258   -1.213775
C     -4.980143    4.255537   -1.779296
C     -4.538342    1.983176    1.098488
C     -3.733059    2.175963    2.391387
C     -5.864432    1.269159    1.432438
C     -3.704022    1.297482   -0.077600
O     -2.306942    1.659028    0.061443
C     -1.414539    0.698172    0.444074
C     -1.708425   -0.666404    0.466211
C     -3.023192   -1.123227    0.050427
C     -3.947394   -0.192774   -0.205828
C     -0.722980   -1.579364    0.859357
C      0.553241   -1.130386    1.220094
C      1.569702   -2.092398    1.647375
C      2.689827   -2.467739    1.006225
C      3.204177   -2.112919   -0.318504
C      2.229269   -1.656236   -1.374778
C      4.522572   -2.294033   -0.553883
C      5.235430   -1.974439   -1.773764
C      6.480754   -2.335274   -2.128732
C      7.435044   -3.236864   -1.484889
C      6.903550   -4.427135   -0.728890
C      8.747849   -3.010527   -1.688262
C      9.849897   -3.815814   -1.119164
O     11.018392   -3.575539   -1.399627
C      0.835929    0.239201    1.197874
C     -0.144718    1.150090    0.803256
H     -2.512734    2.535025   -2.441784
H     -3.939396    2.106749   -3.418307
H     -2.979932    0.840423   -2.672277
H     -5.508878    4.551793    2.074031
H     -6.003386    6.482938    0.594826
H     -5.684042    6.290739   -1.855948
H     -4.863774    4.186552   -2.854875
H     -2.861012    2.822573    2.243104
H     -4.340612    2.645307    3.174132
H     -3.386023    1.213420    2.782265
H     -5.684220    0.293996    1.898190
H     -6.484707    1.113108    0.541895
H     -6.464520    1.857167    2.137798
H     -3.227092   -2.182210   -0.052649
H     -4.934425   -0.501028   -0.537509
H     -0.941708   -2.644638    0.874980
H      1.380445   -2.509678    2.635900
H      3.332441   -3.150729    1.566201
H      2.013074   -0.589300   -1.272506
H      1.294144   -2.223647   -1.321722
H      2.603409   -1.819457   -2.390116
H      5.146923   -2.653702    0.260340
H      4.721286   -1.298647   -2.456320
H      6.849020   -1.885471   -3.054519
H      7.557646   -5.299355   -0.826630
H      6.801624   -4.197273    0.335989
H      5.932011   -4.751396   -1.117733
H      9.096855   -2.169313   -2.281244
H      9.576087   -4.626796   -0.428551
H      1.821695    0.602557    1.479227
H      0.079472    2.213196    0.777857
