64
Conformer 104, Energy = 88.9983 kcal/mol
C     -4.745474    0.493562    1.136714
N     -4.289271    1.872122    1.243971
C     -5.177099    2.868110    0.784557
C     -4.518405    4.001404    0.290156
C     -5.219600    5.100828   -0.193639
C     -6.613230    5.059969   -0.178071
C     -7.282134    3.937598    0.326468
C     -6.564553    2.840594    0.815987
C     -3.022432    3.809239    0.416326
C     -2.263902    4.280079   -0.832592
C     -2.544971    4.626665    1.634661
C     -2.977962    2.227649    0.632569
O     -2.892873    1.575616   -0.659988
C     -1.721853    0.966669   -1.010792
C     -0.688576    0.699523   -0.111905
C     -0.840968    1.066775    1.285882
C     -1.920916    1.778817    1.621958
C      0.471926    0.057669   -0.563038
C      0.601033   -0.329974   -1.905578
C      1.818703   -0.974446   -2.421861
C      2.513772   -1.905635   -1.746531
C      3.730487   -2.585989   -2.201932
C      4.283356   -2.192736   -3.550146
C      4.291688   -3.503433   -1.384877
C      5.458375   -4.318622   -1.652979
C      6.173874   -5.045971   -0.777222
C      6.082235   -5.133585    0.679402
C      5.737101   -3.885818    1.451562
C      6.411594   -6.302985    1.263448
C      6.373581   -6.564483    2.718816
O      6.742597   -7.638684    3.178174
C     -0.442712   -0.045623   -2.795819
C     -1.602275    0.590476   -2.348019
H     -5.577774    0.307181    1.823210
H     -3.947678   -0.202104    1.419100
H     -5.066623    0.244972    0.118671
H     -4.703577    5.978988   -0.568362
H     -7.184749    5.906940   -0.550366
H     -8.368931    3.921218    0.345028
H     -7.101391    1.988881    1.219851
H     -2.314295    5.370592   -0.943817
H     -1.204179    4.007920   -0.771766
H     -2.677968    3.852846   -1.753376
H     -3.065386    4.335956    2.554791
H     -1.468040    4.504408    1.798283
H     -2.729308    5.698731    1.491235
H     -0.102674    0.757824    2.016731
H     -2.074686    2.052868    2.661332
H      1.282989   -0.133039    0.136612
H      2.117076   -0.656423   -3.417211
H      2.147281   -2.211077   -0.766473
H      3.575675   -2.453426   -4.345067
H      5.232333   -2.677126   -3.793520
H      4.474491   -1.114125   -3.587638
H      3.810287   -3.704097   -0.430392
H      5.748488   -4.409194   -2.698326
H      6.953843   -5.675072   -1.214017
H      4.667980   -3.854279    1.682125
H      6.007461   -2.978727    0.898267
H      6.291880   -3.825402    2.393657
H      6.706143   -7.170268    0.679079
H      5.990743   -5.760517    3.364511
H     -0.368236   -0.326999   -3.844462
H     -2.412290    0.797169   -3.043373
