64
Conformer 149, Energy = 91.1754 kcal/mol
C     -2.679030    3.446124   -2.414118
N     -3.544114    3.176174   -1.288604
C     -4.492737    4.093969   -0.842181
C     -4.957275    3.791964    0.446062
C     -5.914779    4.573994    1.079518
C     -6.414485    5.685752    0.402557
C     -5.962967    5.991328   -0.888227
C     -5.002811    5.191033   -1.516462
C     -4.279129    2.527313    0.936037
C     -3.856595    2.606936    2.410024
C     -5.262786    1.350235    0.767655
C     -3.057954    2.447816   -0.092162
O     -2.832385    1.077209   -0.472316
C     -1.719534    0.443789    0.001700
C     -0.640178    1.109547    0.586708
C     -0.671974    2.556553    0.716753
C     -1.811853    3.177543    0.399272
C      0.470829    0.376965    1.019679
C      0.507527   -1.013371    0.857902
C      1.669168   -1.771318    1.320345
C      2.724839   -2.221025    0.619148
C      3.089270   -2.075309   -0.790473
C      2.370341   -1.045706   -1.629823
C      4.083421   -2.780297   -1.377119
C      4.913677   -3.825369   -0.804392
C      5.937569   -4.380888   -1.475372
C      6.828923   -5.441396   -0.992496
C      6.552262   -6.010998    0.376661
C      7.830912   -5.836524   -1.802056
C      8.841110   -6.877040   -1.511629
O      9.712707   -7.153453   -2.328080
C     -0.577668   -1.671112    0.271019
C     -1.685957   -0.941415   -0.161779
H     -2.021444    2.593413   -2.613737
H     -2.052854    4.327939   -2.239156
H     -3.266885    3.613456   -3.323200
H     -6.278067    4.327611    2.071645
H     -7.166081    6.314405    0.873593
H     -6.367804    6.855048   -1.410124
H     -4.673737    5.436109   -2.519984
H     -3.284093    3.514579    2.630097
H     -4.729911    2.622255    3.072916
H     -3.249478    1.739449    2.690976
H     -6.169776    1.502043    1.365162
H     -5.581205    1.228652   -0.274492
H     -4.810944    0.406953    1.094214
H      0.198930    3.093797    1.072693
H     -1.879674    4.256477    0.504995
H      1.317944    0.886399    1.473424
H      1.630756   -1.999404    2.385530
H      3.441359   -2.780684    1.218673
H      2.837967   -0.914417   -2.613052
H      1.336009   -1.344789   -1.817667
H      2.392667   -0.062722   -1.149767
H      4.299226   -2.567604   -2.425430
H      4.673381   -4.163257    0.196702
H      6.146737   -4.013474   -2.481235
H      7.228863   -6.817685    0.663248
H      6.648254   -5.232592    1.142077
H      5.539114   -6.426291    0.421956
H      7.976190   -5.385010   -2.780923
H      8.781454   -7.387733   -0.541030
H     -0.561454   -2.750235    0.137512
H     -2.523789   -1.451710   -0.629384
