64
Conformer 241, Energy = 94.9597 kcal/mol
C     -3.955744    4.383325   -1.135804
N     -4.571165    3.099900   -0.846828
C     -5.369852    3.000246    0.306277
C     -5.414739    1.700400    0.826674
C     -6.215395    1.375626    1.921342
C     -6.992968    2.381109    2.503017
C     -6.956572    3.683033    1.994829
C     -6.143335    3.997239    0.895501
C     -4.560889    0.785034   -0.027290
C     -5.518181   -0.059894   -0.909100
C     -3.683828   -0.160423    0.807426
C     -3.724289    1.878998   -0.844025
O     -2.497230    2.182625   -0.135334
C     -1.332443    1.649130   -0.615464
C     -1.200347    1.131977   -1.906125
C     -2.336107    1.163190   -2.814859
C     -3.517783    1.518730   -2.303758
C      0.029099    0.601360   -2.317217
C      1.122012    0.557741   -1.439896
C      2.379662   -0.036467   -1.923158
C      3.159029   -0.842193   -1.174608
C      4.380798   -1.509782   -1.630200
C      4.776050   -1.328472   -3.079692
C      5.163251   -2.284569   -0.848901
C      4.981118   -2.641667    0.546562
C      5.811178   -3.283603    1.392207
C      7.186455   -3.763225    1.260745
C      8.065327   -3.196894    0.162318
C      7.750487   -4.642192    2.120457
C      7.146175   -5.352540    3.294333
O      5.984538   -5.254842    3.666062
C      0.981313    1.105034   -0.158773
C     -0.239477    1.654961    0.249750
H     -3.375852    4.330397   -2.061352
H     -4.719763    5.150705   -1.293542
H     -3.300618    4.706360   -0.321419
H     -6.258541    0.363212    2.304864
H     -7.664529    2.145607    3.328802
H     -7.589362    4.460543    2.432355
H     -6.164443    5.005730    0.497020
H     -6.162940    0.570976   -1.533310
H     -6.188807   -0.678555   -0.298516
H     -4.959325   -0.744513   -1.564515
H     -2.999217   -0.722758    0.157313
H     -4.295828   -0.890779    1.352737
H     -3.090327    0.379098    1.560137
H     -2.209701    0.899139   -3.859873
H     -4.392163    1.555953   -2.949420
H      0.131069    0.195039   -3.323050
H      2.616618    0.186902   -2.969584
H      2.848830   -1.040302   -0.144002
H      4.004006   -1.741842   -3.739719
H      5.713436   -1.843888   -3.317402
H      4.924189   -0.268471   -3.324683
H      6.027595   -2.732877   -1.325183
H      4.008926   -2.393465    0.973331
H      5.368034   -3.463800    2.377272
H      7.853095   -3.695647   -0.794788
H      9.135636   -3.347607    0.373905
H      7.928706   -2.114018    0.057996
H      8.792161   -4.932945    1.975257
H      7.856691   -6.015106    3.829872
H      1.817887    1.110431    0.532750
H     -0.341613    2.073586    1.250261
