64
Conformer 123, Energy = 89.4846 kcal/mol
C     -1.657596    4.740691   -0.750286
N     -2.872657    3.978792   -0.998096
C     -4.065386    4.494348   -0.451946
C     -4.993162    3.498096   -0.126126
C     -6.240681    3.808033    0.405523
C     -6.562843    5.148677    0.610841
C     -5.647467    6.154276    0.276384
C     -4.397759    5.828532   -0.262066
C     -4.422340    2.141179   -0.477989
C     -5.095291    1.671474   -1.784192
C     -4.680322    1.100864    0.621505
C     -2.881684    2.533026   -0.640454
O     -2.211966    2.380711    0.636430
C     -1.352581    1.331189    0.799372
C     -0.856930    0.566706   -0.257291
C     -1.243684    0.891556   -1.619451
C     -2.190805    1.819501   -1.785367
C      0.026186   -0.487978    0.006261
C      0.427283   -0.775720    1.319390
C      1.321759   -1.899461    1.636244
C      2.391913   -2.233310    0.894574
C      3.321695   -3.337176    1.151862
C      3.041437   -4.217295    2.346147
C      4.357060   -3.512262    0.301772
C      5.410161   -4.500796    0.402241
C      6.292367   -4.859775   -0.545225
C      6.364032   -4.478361   -1.950492
C      5.072160   -4.410818   -2.730674
C      7.526254   -4.311545   -2.609987
C      8.877196   -4.361598   -2.007712
O      9.882412   -4.323194   -2.708009
C     -0.084635   -0.001610    2.368112
C     -0.961858    1.053150    2.108178
H     -1.508432    4.938989    0.317453
H     -1.683371    5.696239   -1.285330
H     -0.779697    4.200207   -1.120574
H     -6.958785    3.031245    0.648985
H     -7.532874    5.416051    1.022850
H     -5.912427    7.197367    0.428771
H     -3.709827    6.622180   -0.531784
H     -6.176663    1.547748   -1.650674
H     -4.697480    0.704580   -2.111059
H     -4.957438    2.389529   -2.600741
H     -5.747587    0.863609    0.705526
H     -4.154793    0.165180    0.403182
H     -4.361833    1.454300    1.608597
H     -0.766962    0.397775   -2.457229
H     -2.492732    2.098495   -2.790225
H      0.394390   -1.094528   -0.817895
H      1.064968   -2.445300    2.538708
H      2.619822   -1.626783    0.019444
H      2.016437   -4.606090    2.310564
H      3.171422   -3.652308    3.275876
H      3.689728   -5.093989    2.402674
H      4.460566   -2.823027   -0.533988
H      5.541207   -4.963065    1.378855
H      7.052905   -5.576757   -0.230784
H      5.237384   -4.611861   -3.794584
H      4.351428   -5.160993   -2.381198
H      4.616591   -3.417860   -2.654424
H      7.538837   -4.098054   -3.675252
H      8.935882   -4.432863   -0.911091
H      0.203148   -0.204703    3.397512
H     -1.346080    1.654785    2.928344
