64
Conformer 31, Energy = 84.9742 kcal/mol
C     -4.888756    1.516096    2.365642
N     -4.526272    2.775586    1.729380
C     -5.533197    3.447238    1.022035
C     -5.064030    4.126960   -0.102336
C     -5.920958    4.869255   -0.912725
C     -7.273924    4.937171   -0.577019
C     -7.750390    4.274826    0.558825
C     -6.879495    3.529850    1.361209
C     -3.568090    3.921708   -0.251056
C     -3.235752    3.434202   -1.677396
C     -2.856512    5.271323   -0.006832
C     -3.300734    2.816700    0.883810
O     -3.120105    1.516940    0.268322
C     -1.839909    1.040249    0.159841
C     -0.774613    1.527267    0.917640
C     -1.009085    2.577786    1.892716
C     -2.199941    3.181226    1.862073
C      0.506460    0.993206    0.737321
C      0.730016   -0.023878   -0.197873
C      2.106521   -0.484388   -0.419780
C      2.465197   -1.776217   -0.495830
C      3.825395   -2.282026   -0.719614
C      4.920930   -1.255808   -0.912733
C      4.018753   -3.618934   -0.744523
C      5.277079   -4.319564   -0.928436
C      5.358998   -5.659459   -1.015746
C      6.581580   -6.446236   -1.216919
C      7.879539   -5.686354   -1.341935
C      6.463528   -7.787513   -1.301758
C      7.564153   -8.753658   -1.511526
O      7.337191   -9.954092   -1.646819
C     -0.348332   -0.510497   -0.945315
C     -1.631829    0.012292   -0.757506
H     -4.009109    1.040751    2.816452
H     -5.604108    1.680853    3.178066
H     -5.327725    0.812126    1.647104
H     -5.551402    5.395577   -1.787457
H     -7.959927    5.517188   -1.190002
H     -8.802397    4.357054    0.834004
H     -7.262979    3.042101    2.251596
H     -3.471728    4.197115   -2.429873
H     -2.167663    3.202745   -1.783779
H     -3.813729    2.538717   -1.946310
H     -1.764406    5.155692   -0.061872
H     -3.138664    6.012639   -0.765555
H     -3.113942    5.707109    0.969192
H     -0.239359    2.850138    2.601792
H     -2.418041    3.974796    2.570162
H      1.338302    1.377607    1.322736
H      2.833569    0.312782   -0.513380
H      1.692847   -2.530485   -0.362488
H      5.876271   -1.680508   -1.224255
H      5.092516   -0.701909    0.018679
H      4.646865   -0.544038   -1.700126
H      3.152939   -4.272762   -0.612175
H      6.176201   -3.718215   -0.993182
H      4.434640   -6.235753   -0.948254
H      7.820733   -4.956792   -2.158414
H      8.741170   -6.318519   -1.560059
H      8.103508   -5.152302   -0.410652
H      5.494987   -8.276101   -1.224715
H      8.588344   -8.356136   -1.550450
H     -0.197160   -1.280139   -1.697411
H     -2.463971   -0.362587   -1.344530
