64
Conformer 32, Energy = 85.7357 kcal/mol
C     -4.405759    2.112186    2.680829
N     -4.169191    2.928394    1.502335
C     -5.201809    2.958848    0.546117
C     -4.739829    3.112715   -0.764532
C     -5.625847    3.222718   -1.843496
C     -6.999306    3.178405   -1.592633
C     -7.470698    3.034176   -0.279684
C     -6.570994    2.929828    0.795199
C     -3.226713    3.195597   -0.763071
C     -2.817034    4.653804   -1.064838
C     -2.612287    2.277240   -1.834124
C     -2.910014    2.721973    0.736401
O     -2.594660    1.306273    0.738168
C     -1.278418    0.949354    0.872019
C     -0.299587    1.807457    1.379377
C     -0.662028    3.152801    1.783327
C     -1.886427    3.574389    1.462762
C      1.019980    1.356786    1.505019
C      1.379929    0.061349    1.099351
C      2.785944   -0.343688    1.259755
C      3.450861   -1.150815    0.406541
C      4.874001   -1.471505    0.500593
C      5.751594   -0.512675    1.278880
C      5.452082   -2.527117   -0.109987
C      4.807569   -3.599086   -0.852289
C      5.510499   -4.579315   -1.449615
C      4.967623   -5.750650   -2.148325
C      3.471076   -5.945995   -2.099519
C      5.843468   -6.590927   -2.744389
C      5.508999   -7.841817   -3.465759
O      6.383104   -8.552286   -3.941191
C      0.383204   -0.793259    0.601429
C     -0.940885   -0.352162    0.494376
H     -4.763551    1.112333    2.417812
H     -5.129106    2.602022    3.328170
H     -3.486687    2.000535    3.268023
H     -5.274567    3.357665   -2.860124
H     -7.701356    3.271813   -2.421714
H     -8.543345    3.024417   -0.091997
H     -6.950153    2.847889    1.809177
H     -3.206103    4.991424   -2.034933
H     -1.722149    4.739762   -1.108336
H     -3.184552    5.363933   -0.312620
H     -2.828307    2.639101   -2.844007
H     -1.520833    2.238462   -1.735079
H     -3.012455    1.256366   -1.777506
H      0.040828    3.781260    2.315984
H     -2.189858    4.573709    1.755249
H      1.780541    2.026446    1.909712
H      3.294207    0.093599    2.130088
H      2.920264   -1.572210   -0.455362
H      5.534691   -0.565530    2.345813
H      6.813540   -0.728405    1.161093
H      5.602486    0.511191    0.934150
H      6.531323   -2.634669   -0.006133
H      3.719735   -3.607042   -0.876177
H      6.602906   -4.530851   -1.399752
H      3.137594   -6.909172   -2.500411
H      3.112796   -5.907755   -1.061994
H      2.967363   -5.162838   -2.681075
H      6.915418   -6.388898   -2.738724
H      4.448331   -8.110183   -3.553454
H      0.621696   -1.815220    0.305481
H     -1.709143   -1.022152    0.109603
