64
Conformer 246, Energy = 95.9040 kcal/mol
C     -4.983364    2.086556   -2.481374
N     -4.938062    1.494318   -1.142840
C     -5.408765    2.308640   -0.096985
C     -4.687060    2.173674    1.090348
C     -5.052252    2.868513    2.244410
C     -6.162870    3.711264    2.198419
C     -6.895733    3.848885    1.014596
C     -6.518827    3.146380   -0.136462
C     -3.556831    1.187372    0.904095
C     -3.847003   -0.061196    1.762065
C     -2.221183    1.800055    1.363269
C     -3.632510    0.938463   -0.680048
O     -2.567716    1.665802   -1.339973
C     -1.475341    0.958851   -1.764717
C     -1.459434   -0.433524   -1.889692
C     -2.670193   -1.189783   -1.618843
C     -3.693411   -0.527327   -1.066789
C     -0.290552   -1.079195   -2.307265
C      0.856727   -0.334169   -2.606159
C      2.085833   -1.008738   -3.020362
C      3.119796   -1.432385   -2.269354
C      3.372632   -1.368957   -0.828209
C      2.392038   -0.648232    0.068152
C      4.470821   -1.899579   -0.241531
C      5.553556   -2.644250   -0.852529
C      6.733882   -2.949203   -0.289295
C      7.254365   -2.528134    1.002452
C      7.385937   -1.039018    1.225168
C      7.717658   -3.395625    1.923716
C      7.640795   -4.867805    1.816064
O      8.142556   -5.589810    2.672022
C      0.817400    1.061740   -2.521186
C     -0.346911    1.706230   -2.098260
H     -4.501843    3.075672   -2.496743
H     -6.018588    2.191079   -2.826852
H     -4.475111    1.445881   -3.210629
H     -4.496179    2.756258    3.170326
H     -6.474560    4.253043    3.090401
H     -7.769463    4.496509    0.991903
H     -7.113128    3.242869   -1.039805
H     -4.832838   -0.498285    1.546756
H     -3.086120   -0.835548    1.603273
H     -3.832044    0.181061    2.831366
H     -1.389805    1.121837    1.147578
H     -2.018116    2.759841    0.872572
H     -2.209253    1.987246    2.442306
H     -2.729025   -2.243314   -1.867687
H     -4.621864   -1.052497   -0.858594
H     -0.265997   -2.163482   -2.389130
H      2.127942   -1.184970   -4.098517
H      3.908473   -1.909585   -2.850865
H      2.720062   -0.635515    1.115340
H      1.410326   -1.137153    0.063567
H      2.290010    0.400730   -0.226531
H      4.560812   -1.792904    0.837125
H      5.381154   -3.033674   -1.852992
H      7.422313   -3.559686   -0.875536
H      8.049289   -0.809008    2.068059
H      6.415025   -0.584900    1.446416
H      7.816484   -0.548515    0.343071
H      8.157595   -3.048132    2.854145
H      7.110302   -5.277032    0.940472
H      1.697746    1.652149   -2.764504
H     -0.369578    2.790212   -2.019212
