64
Conformer 209, Energy = 93.7224 kcal/mol
C     -3.949070    0.294316   -1.970373
N     -4.419214    0.899592   -0.732491
C     -5.270961    2.016751   -0.860502
C     -5.151728    2.919251    0.203598
C     -5.920493    4.075917    0.269456
C     -6.830007    4.329291   -0.756050
C     -6.967402    3.427050   -1.817814
C     -6.191972    2.263978   -1.868772
C     -4.131023    2.400146    1.193297
C     -3.192488    3.504778    1.699555
C     -4.899117    1.803460    2.390520
C     -3.403516    1.314783    0.275646
O     -2.306693    1.951436   -0.427120
C     -1.026258    1.627557   -0.078643
C     -0.696336    0.541946    0.734250
C     -1.749696   -0.318337    1.244413
C     -3.013402    0.053131    1.019077
C      0.647681    0.278232    1.021521
C      1.657767    1.091589    0.491735
C      3.063444    0.827768    0.800285
C      3.839101   -0.184344    0.375142
C      3.570182   -1.274884   -0.565192
C      2.481354   -1.093781   -1.593230
C      4.372515   -2.361465   -0.518592
C      4.259807   -3.556293   -1.329732
C      5.153155   -4.550186   -1.474766
C      6.524073   -4.681627   -0.983503
C      7.367873   -3.438765   -0.863924
C      6.993612   -5.924433   -0.758474
C      8.349133   -6.247082   -0.263403
O      8.713129   -7.409688   -0.130564
C      1.315825    2.180216   -0.315840
C     -0.023767    2.441554   -0.606549
H     -4.776314   -0.181933   -2.507303
H     -3.217790   -0.494170   -1.763059
H     -3.476317    1.029092   -2.632112
H     -5.827734    4.767294    1.100466
H     -7.443248    5.226369   -0.727460
H     -7.687900    3.628258   -2.606457
H     -6.326935    1.569404   -2.690111
H     -3.727713    4.226496    2.327866
H     -2.384034    3.082285    2.305872
H     -2.745479    4.076500    0.878615
H     -4.212105    1.384842    3.134319
H     -5.593177    1.012461    2.082644
H     -5.497036    2.569641    2.899344
H     -1.502020   -1.228715    1.777052
H     -3.823658   -0.578593    1.370766
H      0.916126   -0.567678    1.650598
H      3.494383    1.546383    1.496715
H      4.843533   -0.202713    0.803951
H      2.474193   -0.071481   -1.985576
H      1.500848   -1.327939   -1.169635
H      2.620373   -1.733401   -2.470142
H      5.151928   -2.394679    0.239017
H      3.302062   -3.698510   -1.829064
H      4.805987   -5.406571   -2.058717
H      7.320361   -3.033201    0.151293
H      8.418447   -3.632577   -1.102893
H      7.049722   -2.665213   -1.571560
H      6.371418   -6.804259   -0.901424
H      9.006803   -5.402997   -0.009652
H      2.087987    2.822433   -0.732683
H     -0.288219    3.281315   -1.243652
