64
Conformer 196, Energy = 92.5681 kcal/mol
C     -5.426797    0.673949   -0.954877
N     -4.866797    1.375929    0.185444
C     -5.536489    2.501420    0.664350
C     -4.684392    3.486409    1.164154
C     -5.177632    4.663188    1.718789
C     -6.558421    4.851109    1.772613
C     -7.421312    3.868596    1.274488
C     -6.910533    2.691139    0.721989
C     -3.240026    3.079311    0.964510
C     -2.539370    4.126794    0.077468
C     -2.511609    3.025237    2.319318
C     -3.408734    1.654801    0.238860
O     -2.899651    1.745151   -1.113139
C     -1.749797    1.072901   -1.421474
C     -1.194289    0.079964   -0.616160
C     -1.833531   -0.270844    0.639900
C     -2.864534    0.480540    1.033005
C     -0.041599   -0.595594   -1.038889
C      0.581943   -0.268273   -2.251972
C      1.765973   -0.992843   -2.748585
C      2.709013   -1.533093   -1.954899
C      3.885151   -2.302389   -2.381012
C      4.096135   -2.482512   -3.865374
C      4.688348   -2.813346   -1.419392
C      5.892718   -3.597376   -1.596758
C      6.706303   -4.159425   -0.685489
C      6.728562   -4.175045    0.780942
C      5.941161   -3.146324    1.546552
C      7.518227   -5.095667    1.374477
C      7.677112   -5.310952    2.830203
O      8.465180   -6.144238    3.260341
C      0.009121    0.730915   -3.048821
C     -1.151725    1.394646   -2.637373
H     -4.773177   -0.153513   -1.262824
H     -6.386514    0.222813   -0.665488
H     -5.580434    1.339039   -1.814868
H     -4.507307    5.429606    2.096936
H     -6.969924    5.765192    2.193728
H     -8.497453    4.019157    1.320955
H     -7.595178    1.929828    0.361596
H     -1.513943    3.826877   -0.158069
H     -3.073650    4.284401   -0.866510
H     -2.483411    5.102662    0.574610
H     -2.440904    4.019569    2.774400
H     -1.488213    2.657630    2.193693
H     -3.025545    2.384635    3.045543
H     -1.476412   -1.109484    1.226004
H     -3.372779    0.246911    1.964065
H      0.354097   -1.395444   -0.418260
H      1.827139   -1.075207   -3.830843
H      2.615437   -1.396201   -0.879189
H      3.185698   -2.870568   -4.340993
H      4.362060   -1.529529   -4.338053
H      4.868433   -3.211608   -4.115120
H      4.397510   -2.631280   -0.391995
H      6.177566   -3.785402   -2.630113
H      7.518759   -4.740700   -1.131298
H      6.052659   -2.152980    1.097468
H      6.275400   -3.030809    2.580789
H      4.880103   -3.417080    1.578248
H      8.102716   -5.802646    0.791642
H      7.054227   -4.707089    3.503160
H      0.454854    1.005269   -4.002012
H     -1.589524    2.161876   -3.270412
