64
Conformer 237, Energy = 94.7871 kcal/mol
C     -3.335128    3.347488   -2.571561
N     -3.770849    3.265738   -1.196190
C     -5.028751    3.701497   -0.784237
C     -5.368119    3.214367    0.486116
C     -6.574771    3.536110    1.093499
C     -7.461227    4.364213    0.406376
C     -7.128783    4.862592   -0.860165
C     -5.907100    4.535041   -1.457016
C     -4.225191    2.372460    1.019051
C     -3.424885    3.222705    2.030071
C     -4.701316    1.092994    1.722294
C     -3.414070    2.113665   -0.333821
O     -1.999913    2.181122   -0.070582
C     -1.282638    1.019192   -0.074900
C     -1.751825   -0.177778   -0.617125
C     -3.079008   -0.226433   -1.209122
C     -3.855677    0.852281   -1.069011
C     -0.931746   -1.313523   -0.601610
C      0.358467   -1.257575   -0.058490
C      1.172005   -2.482270   -0.028505
C      2.494408   -2.502322   -0.266157
C      3.367850   -3.680145   -0.243442
C      2.736627   -5.004600    0.111729
C      4.678905   -3.504786   -0.517539
C      5.707587   -4.522508   -0.585764
C      7.037743   -4.336219   -0.648506
C      7.817461   -3.104348   -0.552045
C      7.393475   -2.066914    0.458311
C      8.933645   -2.999207   -1.300318
C      9.844521   -1.825393   -1.343842
O      9.600890   -0.733047   -0.853721
C      0.810553   -0.050448    0.489661
C     -0.002812    1.084493    0.471763
H     -2.310203    2.975871   -2.677857
H     -3.332887    4.387745   -2.916580
H     -3.983032    2.764121   -3.235340
H     -6.824343    3.166509    2.082093
H     -8.411388    4.634424    0.860109
H     -7.822952    5.517744   -1.380637
H     -5.661186    4.939204   -2.432395
H     -3.044992    4.145876    1.577168
H     -4.048623    3.516019    2.883269
H     -2.569749    2.665210    2.427837
H     -5.219462    1.324422    2.661310
H     -3.854327    0.443172    1.969805
H     -5.408754    0.521663    1.110113
H     -3.416543   -1.116013   -1.726251
H     -4.862739    0.844475   -1.477918
H     -1.296879   -2.246722   -1.025010
H      0.621028   -3.391200    0.189377
H      2.986529   -1.561750   -0.511813
H      2.240463   -4.944786    1.086662
H      1.996218   -5.290339   -0.643432
H      3.452902   -5.825411    0.185561
H      5.023816   -2.499171   -0.751301
H      5.364033   -5.551265   -0.659490
H      7.638223   -5.236577   -0.794575
H      6.756185   -2.495967    1.239496
H      6.848755   -1.250262   -0.026663
H      8.254518   -1.646318    0.989768
H      9.231577   -3.797109   -1.974137
H     10.787917   -2.011538   -1.886159
H      1.795325    0.020000    0.941721
H      0.360244    2.019532    0.890047
