64
Conformer 253, Energy = 96.8007 kcal/mol
C     -5.597224   -0.140972    0.881371
N     -4.793685    1.022758    1.231754
C     -5.288291    2.274629    0.809711
C     -4.273857    3.201560    0.541435
C     -4.560177    4.498136    0.128284
C     -5.895464    4.871643   -0.015316
C     -6.918306    3.957509    0.264234
C     -6.616652    2.657452    0.684018
C     -2.926145    2.566732    0.806203
C     -1.899085    2.900382   -0.285218
C     -2.412952    3.101451    2.158543
C     -3.358400    1.029379    0.829919
O     -3.265196    0.490487   -0.513395
C     -2.262211   -0.393921   -0.794794
C     -1.489808   -1.023857    0.182812
C     -1.751311   -0.754476    1.586092
C     -2.631186    0.208633    1.875899
C     -0.489367   -1.923765   -0.201541
C     -0.253825   -2.183677   -1.557611
C      0.783857   -3.130118   -1.968188
C      2.117777   -3.004438   -1.864323
C      2.937206   -1.885031   -1.405618
C      2.394220   -0.483477   -1.556036
C      4.200031   -2.038116   -0.949719
C      4.907619   -3.280346   -0.710259
C      6.217789   -3.450431   -0.462395
C      7.318620   -2.488734   -0.475483
C      7.290698   -1.372088   -1.487643
C      8.359080   -2.707418    0.350442
C      9.555718   -1.839610    0.480851
O      9.601324   -0.664593    0.147377
C     -1.045552   -1.561836   -2.527238
C     -2.048146   -0.669216   -2.145331
H     -5.079764   -1.066002    1.154124
H     -6.543788   -0.139833    1.432783
H     -5.815929   -0.177961   -0.191780
H     -3.768224    5.212797   -0.072211
H     -6.144699    5.879459   -0.336892
H     -7.956641    4.261867    0.160552
H     -7.423836    1.970613    0.912619
H     -0.976693    2.328104   -0.140531
H     -1.628999    3.962750   -0.268771
H     -2.281151    2.691014   -1.290337
H     -3.114045    2.897770    2.976045
H     -1.446239    2.659128    2.419540
H     -2.270990    4.188577    2.126734
H     -1.245694   -1.325286    2.355877
H     -2.858658    0.426919    2.914650
H      0.117413   -2.420381    0.551980
H      0.386853   -4.057006   -2.380567
H      2.687902   -3.872034   -2.198267
H      1.689214   -0.245242   -0.755364
H      1.903825   -0.350508   -2.526032
H      3.190659    0.268112   -1.509403
H      4.744477   -1.138756   -0.669675
H      4.288052   -4.174128   -0.656275
H      6.516604   -4.469109   -0.206277
H      6.681676   -1.633191   -2.359199
H      6.896602   -0.452206   -1.044942
H      8.287741   -1.161188   -1.888500
H      8.374256   -3.562629    1.019014
H     10.425444   -2.341724    0.936694
H     -0.882777   -1.761521   -3.583745
H     -2.659689   -0.183038   -2.900699
