46
Conformer 17, Energy = 70.3087 kcal/mol
C     -1.923754    0.387275   -2.558277
N     -2.056797    0.869835   -1.191345
C     -3.170637    0.403267   -0.462455
C     -2.926181    0.318598    0.913707
C     -3.906539   -0.103454    1.804773
C     -5.160291   -0.446203    1.300901
C     -5.420002   -0.352589   -0.071761
C     -4.426399    0.079438   -0.956506
C     -1.512699    0.776302    1.204146
C     -1.590343    2.209131    1.770543
C     -0.802551   -0.127092    2.222315
C     -0.900321    0.687962   -0.267772
O     -0.362837   -0.641798   -0.481020
C      0.994229   -0.797474   -0.516446
C      1.890790    0.263989   -0.645895
C      1.382846    1.620001   -0.766037
C      0.071074    1.805087   -0.590823
C      3.266183    0.005689   -0.686674
C      3.747404   -1.305711   -0.583080
C      5.180176   -1.606144   -0.658409
C      6.155393   -1.200628    0.169008
C      6.023846   -0.359875    1.386500
O      4.985000    0.135396    1.795991
C      2.836135   -2.362109   -0.473564
C      1.463828   -2.108037   -0.441026
H     -2.722775    0.789221   -3.190496
H     -0.979273    0.724656   -2.998398
H     -1.950362   -0.707226   -2.611344
H     -3.711579   -0.159665    2.870666
H     -5.943620   -0.778721    1.977149
H     -6.404486   -0.611393   -0.453107
H     -4.653118    0.162107   -2.013358
H     -2.148341    2.232143    2.714627
H     -0.591529    2.609252    1.977336
H     -2.098552    2.897391    1.085077
H     -0.862396   -1.186350    1.948295
H      0.254072    0.145874    2.316536
H     -1.251720   -0.036274    3.218348
H      2.057788    2.437514   -0.988216
H     -0.342604    2.804515   -0.683593
H      3.968129    0.830325   -0.784427
H      5.448351   -2.255622   -1.490495
H      7.173828   -1.523620   -0.025438
H      6.975873   -0.204941    1.922201
H      3.185172   -3.389605   -0.405979
H      0.759589   -2.930437   -0.349961
