46
Conformer 14, Energy = 67.1147 kcal/mol
C     -2.158848   -1.426123   -2.077064
N     -2.179817   -0.868589   -0.744056
C     -3.279888   -0.173541   -0.245727
C     -2.961315    0.574160    0.897072
C     -3.914568    1.335500    1.561332
C     -5.216824    1.346007    1.063689
C     -5.547378    0.595817   -0.072581
C     -4.578278   -0.171339   -0.727800
C     -1.499778    0.361612    1.239811
C     -1.414444   -0.651085    2.401339
C     -0.789413    1.655236    1.663215
C     -0.974904   -0.252650   -0.139335
O     -0.029487   -1.305784    0.127970
C      1.290626   -1.079164   -0.135194
C      1.753637   -0.017824   -0.915835
C      0.803568    0.920093   -1.489801
C     -0.474888    0.805879   -1.117180
C      3.126656    0.118537   -1.151641
C      4.031239   -0.802838   -0.608993
C      5.467265   -0.651119   -0.840418
C      6.287522    0.138645   -0.133174
C      5.865579    0.977763    1.008589
O      6.669583    1.693771    1.593983
C      3.557883   -1.866598    0.164086
C      2.188718   -2.005609    0.395476
H     -2.282300   -0.650204   -2.840418
H     -1.214179   -1.946578   -2.267191
H     -2.958428   -2.164343   -2.200812
H     -3.663886    1.902097    2.451928
H     -5.983777    1.930971    1.565291
H     -6.568837    0.603859   -0.444715
H     -4.855117   -0.755199   -1.598311
H     -0.372964   -0.852810    2.675295
H     -1.887075   -1.607016    2.146431
H     -1.920389   -0.271470    3.297254
H     -0.948907    2.470206    0.948668
H      0.289125    1.494057    1.767336
H     -1.160480    2.013502    2.630843
H      1.136952    1.686772   -2.178837
H     -1.209709    1.504035   -1.507874
H      3.494089    0.941724   -1.760921
H      5.868558   -1.243517   -1.659941
H      7.344326    0.196652   -0.373014
H      4.805890    0.927660    1.303843
H      4.245793   -2.594270    0.588983
H      1.818869   -2.836887    0.990615
